ITEM: TIMESTEP
500
ITEM: NUMBER OF ATOMS
102400
ITEM: BOX BOUNDS xy xz yz pp pp pp
-4.9290243286506552e-01 2.2677253142218817e+02 9.9962898932304256e-01
-4.2893592195464691e-01 1.9955020550408631e+02 0.0000000000000000e+00
-5.5044184063479662e-02 2.4945202881830035e+01 0.0000000000000000e+00
ITEM: ATOMS id type element mass x y z
34 1 Ni 58.71 1.23834 0.715154 1.15221
37 1 Ni 58.71 4.72559 0.780809 1.23857
162 1 Ni 58.71 1.37259 0.801212 3.63518
163 1 Ni 58.71 1.22441 0.888303 6.14633
166 1 Ni 58.71 4.8315 0.689365 3.69678
167 1 Ni 58.71 4.82531 0.813609 6.12519
168 1 Ni 58.71 3.06622 2.08133 4.90631
290 1 Ni 58.71 1.33168 3.30559 1.21716
291 1 Ni 58.71 1.31335 3.27155 3.66813
293 1 Ni 58.71 3.0318 2.00807 2.41632
294 1 Ni 58.71 4.79688 3.30379 1.1411
295 1 Ni 58.71 4.82563 3.23432 3.62624
296 1 Ni 58.71 3.03349 4.57273 2.44694
418 1 Ni 58.71 1.2488 5.78643 1.15734
421 1 Ni 58.71 4.79109 6.04329 1.17863
674 1 Ni 58.71 1.20352 3.39502 6.21201
678 1 Ni 58.71 4.78437 3.2899 6.22792
802 1 Ni 58.71 1.28227 5.71769 3.7151
803 1 Ni 58.71 1.28846 5.82071 6.20926
805 1 Ni 58.71 3.04163 4.56559 4.88332
806 1 Ni 58.71 4.88405 5.81002 3.69409
807 1 Ni 58.71 4.88891 5.72812 6.19059
54305 1 Ni 58.71 112.74 19.5325 -0.0337058
26767 1 Ni 58.71 49.4671 99.5031 17.3406
40 1 Ni 58.71 8.33354 0.889717 1.19105
43 1 Ni 58.71 11.8684 0.650558 1.20877
170 1 Ni 58.71 8.31311 0.827084 3.64141
171 1 Ni 58.71 8.31175 0.806112 6.14493
172 1 Ni 58.71 6.65848 2.15101 4.90329
174 1 Ni 58.71 11.7949 0.80907 3.68555
175 1 Ni 58.71 11.7722 0.819736 6.22568
176 1 Ni 58.71 10.0722 2.11681 4.95093
297 1 Ni 58.71 6.58882 2.00325 2.37449
298 1 Ni 58.71 8.47545 3.34798 1.13207
299 1 Ni 58.71 8.42306 3.34146 3.62089
300 1 Ni 58.71 6.58507 4.54793 2.37557
301 1 Ni 58.71 10.1214 2.01625 2.40961
302 1 Ni 58.71 11.8567 3.20087 1.09935
303 1 Ni 58.71 11.894 3.25294 3.65633
304 1 Ni 58.71 10.1898 4.47897 2.40788
424 1 Ni 58.71 8.44524 5.85009 1.16313
427 1 Ni 58.71 11.8415 5.72516 1.02769
682 1 Ni 58.71 8.40082 3.34528 6.27577
686 1 Ni 58.71 11.9107 3.24999 6.11857
809 1 Ni 58.71 6.5678 4.48937 4.94152
810 1 Ni 58.71 8.46424 5.76151 3.59428
811 1 Ni 58.71 8.35539 5.79478 6.11519
813 1 Ni 58.71 10.1634 4.54281 4.9937
814 1 Ni 58.71 11.9494 5.88965 3.7056
815 1 Ni 58.71 11.8795 5.73351 6.14725
74273 1 Ni 58.71 113.002 89.539 9.90688
46 1 Ni 58.71 15.3813 0.813858 1.12364
47 1 Ni 58.71 13.5756 1.89129 24.9067
178 1 Ni 58.71 15.3434 0.734562 3.50283
179 1 Ni 58.71 15.437 0.729814 6.06118
180 1 Ni 58.71 13.6494 1.94657 4.95556
184 1 Ni 58.71 17.1565 1.98247 4.86636
305 1 Ni 58.71 13.5452 2.03639 2.49075
306 1 Ni 58.71 15.4224 3.26266 1.18377
307 1 Ni 58.71 15.3698 3.21962 3.5903
308 1 Ni 58.71 13.6113 4.48951 2.44464
309 1 Ni 58.71 17.1612 1.96799 2.39521
312 1 Ni 58.71 17.2169 4.60509 2.33937
430 1 Ni 58.71 15.446 5.76692 1.18288
690 1 Ni 58.71 15.3756 3.25695 6.19812
817 1 Ni 58.71 13.7265 4.49427 4.95821
818 1 Ni 58.71 15.4596 5.68656 3.71553
819 1 Ni 58.71 15.5445 5.77294 6.24107
821 1 Ni 58.71 17.1749 4.46456 4.89118
1205 1 Ni 58.71 17.3248 -0.346623 14.961
27664 1 Ni 58.71 53.004 99.4639 22.4268
49 1 Ni 58.71 18.964 0.788998 1.06769
52 1 Ni 58.71 22.4207 0.765687 1.15782
182 1 Ni 58.71 18.8781 0.677898 3.5911
183 1 Ni 58.71 18.9799 0.863964 6.08061
186 1 Ni 58.71 22.5078 0.749627 3.61123
187 1 Ni 58.71 22.566 0.782438 6.13963
188 1 Ni 58.71 20.7647 2.00747 4.8019
192 1 Ni 58.71 24.2702 1.99604 4.85215
310 1 Ni 58.71 18.9753 3.284 1.1562
311 1 Ni 58.71 18.8714 3.22497 3.64131
313 1 Ni 58.71 20.6631 1.9388 2.31778
314 1 Ni 58.71 22.5673 3.27571 1.03685
315 1 Ni 58.71 22.5546 3.30842 3.50624
316 1 Ni 58.71 20.7579 4.65017 2.27703
317 1 Ni 58.71 24.3117 1.98162 2.28753
320 1 Ni 58.71 24.252 4.59465 2.42858
433 1 Ni 58.71 18.9434 5.78754 1.03803
436 1 Ni 58.71 22.4778 5.79133 0.982424
694 1 Ni 58.71 18.9241 3.39642 6.15751
698 1 Ni 58.71 22.5124 3.45556 6.06532
822 1 Ni 58.71 18.9405 5.71046 3.61967
823 1 Ni 58.71 19.0329 5.94323 6.12502
825 1 Ni 58.71 20.6195 4.52877 4.71805
827 1 Ni 58.71 22.5251 5.82108 6.11889
829 1 Ni 58.71 24.3717 4.55496 4.89375
18209 1 Ni 58.71 -0.0425154 74.6275 4.72792
12705 1 Ni 58.71 -0.146674 47.0715 12.4077
55 1 Ni 58.71 25.919 0.743591 0.960832
58 1 Ni 58.71 29.4832 0.837669 1.14111
190 1 Ni 58.71 26.0357 0.687678 3.50795
191 1 Ni 58.71 26.0328 0.801857 6.08498
194 1 Ni 58.71 29.5452 0.734861 3.57492
195 1 Ni 58.71 29.6098 0.804315 6.15703
196 1 Ni 58.71 27.8553 2.11191 4.87639
318 1 Ni 58.71 26.0225 3.23578 0.977114
319 1 Ni 58.71 25.9566 3.25946 3.65531
321 1 Ni 58.71 27.6909 2.12586 2.38166
322 1 Ni 58.71 29.6454 3.27928 1.0065
323 1 Ni 58.71 29.5853 3.24287 3.49983
324 1 Ni 58.71 27.7497 4.45828 2.34082
439 1 Ni 58.71 26.0184 5.73319 1.0538
442 1 Ni 58.71 29.6233 5.81612 1.16251
702 1 Ni 58.71 26.0233 3.31502 6.06009
706 1 Ni 58.71 29.5958 3.35114 6.1171
830 1 Ni 58.71 26.015 5.79138 3.52022
831 1 Ni 58.71 26.0616 5.72107 6.12238
833 1 Ni 58.71 27.6841 4.51096 4.84989
61 1 Ni 58.71 33.1169 0.813675 1.01409
64 1 Ni 58.71 36.5367 0.802445 1.06695
198 1 Ni 58.71 33.1391 0.859952 3.53112
199 1 Ni 58.71 32.951 0.73927 6.07892
200 1 Ni 58.71 31.3048 2.03885 4.75159
202 1 Ni 58.71 36.5093 0.767376 3.58018
203 1 Ni 58.71 36.6222 0.814354 6.03957
204 1 Ni 58.71 34.9022 2.06179 4.79408
325 1 Ni 58.71 31.3939 2.02192 2.27875
326 1 Ni 58.71 33.0141 3.33802 1.12102
327 1 Ni 58.71 33.1915 3.39509 3.60682
328 1 Ni 58.71 31.293 4.63095 2.25949
329 1 Ni 58.71 34.8645 2.1957 2.29044
330 1 Ni 58.71 36.6241 3.39305 0.985265
331 1 Ni 58.71 36.7169 3.26418 3.58397
332 1 Ni 58.71 34.9154 4.58172 2.37631
445 1 Ni 58.71 33.0528 5.92592 1.18838
448 1 Ni 58.71 36.6049 5.85209 1.00987
714 1 Ni 58.71 36.6359 3.34302 6.13383
837 1 Ni 58.71 31.3046 4.54636 4.84362
838 1 Ni 58.71 33.2061 5.80302 3.68173
839 1 Ni 58.71 33.0366 5.56435 6.14142
841 1 Ni 58.71 34.9037 4.52686 4.85466
842 1 Ni 58.71 36.6644 5.83692 3.57768
1297 1 Ni 58.71 98.5969 -0.403667 14.9481
221 1 Ni 58.71 52.6242 -0.386113 4.81286
25612 1 Ni 58.71 38.9763 99.5335 2.34337
52257 1 Ni 58.71 112.656 9.59208 -0.000577197
9633 1 Ni 58.71 -0.152849 27.1369 22.4954
67 1 Ni 58.71 40.1118 0.732161 0.969975
206 1 Ni 58.71 40.1085 0.787705 3.44336
207 1 Ni 58.71 40.1657 0.661043 6.05236
208 1 Ni 58.71 38.3904 2.03886 4.74623
210 1 Ni 58.71 43.7416 0.93012 3.60779
212 1 Ni 58.71 41.8547 2.00963 4.87992
333 1 Ni 58.71 38.3185 2.00016 2.21636
334 1 Ni 58.71 40.2096 3.17728 1.14397
335 1 Ni 58.71 40.1864 3.40986 3.48236
336 1 Ni 58.71 38.377 4.57057 2.3573
337 1 Ni 58.71 41.913 2.0716 2.35914
338 1 Ni 58.71 43.6579 3.33191 1.11552
340 1 Ni 58.71 41.8917 4.53802 2.29941
451 1 Ni 58.71 40.1125 5.83804 1.09484
453 1 Ni 58.71 41.932 4.43663 24.8564
454 1 Ni 58.71 43.7464 5.78061 1.0279
718 1 Ni 58.71 40.1188 3.25729 6.07245
722 1 Ni 58.71 43.6091 3.35181 6.04965
845 1 Ni 58.71 38.3951 4.53906 4.78056
846 1 Ni 58.71 40.21 5.8708 3.63275
847 1 Ni 58.71 40.142 5.78157 6.11637
849 1 Ni 58.71 41.8867 4.52987 4.87756
850 1 Ni 58.71 43.6671 5.78465 3.6845
851 1 Ni 58.71 43.5855 5.85438 6.17888
193 1 Ni 58.71 27.7755 -0.331693 4.75963
9764 1 Ni 58.71 -0.285651 31.9589 19.9885
69281 1 Ni 58.71 112.971 72.0453 7.39612
70 1 Ni 58.71 43.7504 0.724836 1.13373
211 1 Ni 58.71 43.7983 0.900027 6.18557
339 1 Ni 58.71 43.6078 3.26271 3.65983
73 1 Ni 58.71 47.2054 0.854393 1.08524
74 1 Ni 58.71 45.4275 2.00399 24.9062
214 1 Ni 58.71 47.2322 0.883648 3.63287
215 1 Ni 58.71 47.2308 0.809558 6.06224
216 1 Ni 58.71 45.5497 2.20856 4.91086
220 1 Ni 58.71 48.9404 2.0785 4.85996
341 1 Ni 58.71 45.4998 2.24798 2.35269
342 1 Ni 58.71 47.2519 3.3175 1.02353
343 1 Ni 58.71 47.2189 3.3796 3.60237
344 1 Ni 58.71 45.5392 4.59906 2.40015
345 1 Ni 58.71 48.9318 2.12161 2.37108
348 1 Ni 58.71 48.9422 4.54746 2.31226
457 1 Ni 58.71 47.3075 5.72979 1.11755
726 1 Ni 58.71 47.2168 3.32846 6.06145
853 1 Ni 58.71 45.4913 4.65269 4.79714
854 1 Ni 58.71 47.3462 5.77719 3.52893
855 1 Ni 58.71 47.2886 5.84532 6.1218
857 1 Ni 58.71 48.9705 4.53012 4.89056
72100 1 Ni 58.71 112.989 89.5443 2.46303
74788 1 Ni 58.71 112.984 84.5911 22.4674
76 1 Ni 58.71 50.7616 0.749202 1.14026
79 1 Ni 58.71 54.3845 0.635362 1.1282
218 1 Ni 58.71 50.7912 0.824431 3.6045
219 1 Ni 58.71 50.7328 0.788489 5.96697
222 1 Ni 58.71 54.3185 0.963036 3.51455
223 1 Ni 58.71 54.2547 0.852836 6.18148
224 1 Ni 58.71 52.518 2.16575 4.83297
228 1 Ni 58.71 56.083 2.03518 4.89018
346 1 Ni 58.71 50.5918 3.21841 1.12354
347 1 Ni 58.71 50.6694 3.33536 3.63432
349 1 Ni 58.71 52.5403 2.11541 2.40919
350 1 Ni 58.71 54.3884 3.17614 1.1548
351 1 Ni 58.71 54.3347 3.28956 3.59876
352 1 Ni 58.71 52.5934 4.45946 2.38939
353 1 Ni 58.71 56.1209 2.04612 2.42696
356 1 Ni 58.71 56.0468 4.53366 2.38412
460 1 Ni 58.71 50.7637 5.65966 1.10107
463 1 Ni 58.71 54.3437 5.73133 1.18435
730 1 Ni 58.71 50.712 3.22764 6.08761
734 1 Ni 58.71 54.3524 3.36818 6.07712
858 1 Ni 58.71 50.7749 5.80843 3.59025
859 1 Ni 58.71 50.7479 5.8107 5.98492
861 1 Ni 58.71 52.4878 4.54817 4.83348
862 1 Ni 58.71 54.2309 5.69677 3.65617
863 1 Ni 58.71 54.2659 5.8282 6.15557
865 1 Ni 58.71 56.0937 4.44194 4.95646
82 1 Ni 58.71 57.8446 0.767898 1.21489
85 1 Ni 58.71 61.3091 0.792319 1.11484
226 1 Ni 58.71 57.9048 0.863418 3.57132
227 1 Ni 58.71 57.832 0.790258 6.15247
230 1 Ni 58.71 61.378 0.911163 3.62217
231 1 Ni 58.71 61.4055 0.814459 6.12531
232 1 Ni 58.71 59.657 2.04478 4.83496
354 1 Ni 58.71 57.9103 3.25973 1.13179
355 1 Ni 58.71 57.8396 3.34277 3.66529
357 1 Ni 58.71 59.6243 2.2084 2.37683
358 1 Ni 58.71 61.3737 3.42214 1.05249
359 1 Ni 58.71 61.5032 3.36306 3.6112
360 1 Ni 58.71 59.6144 4.63649 2.47027
466 1 Ni 58.71 57.8602 5.7494 1.1382
469 1 Ni 58.71 61.3594 5.89399 1.31148
738 1 Ni 58.71 57.9696 3.27782 6.0768
742 1 Ni 58.71 61.3262 3.26847 6.11418
866 1 Ni 58.71 57.7374 5.83404 3.6508
867 1 Ni 58.71 57.8819 5.73809 6.11329
869 1 Ni 58.71 59.5793 4.54719 4.84474
870 1 Ni 58.71 61.3929 5.71193 3.71192
871 1 Ni 58.71 61.3303 5.76877 6.07249
88 1 Ni 58.71 65.0032 0.863218 1.13164
89 1 Ni 58.71 63.1441 2.07268 24.8677
91 1 Ni 58.71 68.3948 0.869107 1.12772
92 1 Ni 58.71 66.7231 2.11426 24.8581
234 1 Ni 58.71 64.8539 0.874426 3.66548
235 1 Ni 58.71 64.9354 0.944156 6.15249
236 1 Ni 58.71 63.0675 2.07719 4.90624
238 1 Ni 58.71 68.3785 0.745696 3.61828
239 1 Ni 58.71 68.3042 0.794771 6.234
240 1 Ni 58.71 66.6806 1.98026 4.94594
361 1 Ni 58.71 63.2051 2.09116 2.32096
362 1 Ni 58.71 64.9634 3.30907 1.09287
363 1 Ni 58.71 64.9205 3.29845 3.64846
364 1 Ni 58.71 63.2538 4.66343 2.42692
365 1 Ni 58.71 66.7295 2.06401 2.37739
366 1 Ni 58.71 68.5217 3.40104 1.15682
367 1 Ni 58.71 68.3885 3.27626 3.64565
368 1 Ni 58.71 66.7194 4.6294 2.41721
472 1 Ni 58.71 64.9642 5.77545 1.11676
475 1 Ni 58.71 68.5282 5.83388 1.04866
746 1 Ni 58.71 64.9401 3.31361 6.18731
750 1 Ni 58.71 68.3968 3.2399 6.07383
873 1 Ni 58.71 63.1601 4.4402 4.87765
875 1 Ni 58.71 64.9615 5.85241 6.19286
877 1 Ni 58.71 66.7354 4.55853 4.93318
879 1 Ni 58.71 68.4398 5.81024 6.08371
94 1 Ni 58.71 72.0568 0.927473 1.11145
98 1 Ni 58.71 73.8425 2.05129 24.8409
242 1 Ni 58.71 72.0769 0.839244 3.63479
243 1 Ni 58.71 71.9979 0.837205 6.11245
244 1 Ni 58.71 70.2035 2.0916 4.9101
248 1 Ni 58.71 73.7777 2.08822 4.91283
369 1 Ni 58.71 70.1222 2.13498 2.34463
370 1 Ni 58.71 72.0608 3.31909 1.17201
371 1 Ni 58.71 72.0454 3.26139 3.64408
372 1 Ni 58.71 70.3055 4.5706 2.34006
373 1 Ni 58.71 73.7893 1.97518 2.32908
376 1 Ni 58.71 73.7657 4.50024 2.37909
477 1 Ni 58.71 70.3335 4.51935 24.8115
478 1 Ni 58.71 71.9729 5.76291 1.22327
480 1 Ni 58.71 73.7485 4.45778 24.872
881 1 Ni 58.71 70.3478 4.48339 4.80636
882 1 Ni 58.71 72.142 5.80627 3.66413
883 1 Ni 58.71 71.8459 5.77944 6.11331
885 1 Ni 58.71 73.736 4.587 4.9641
2060 1 Ni 58.71 38.1731 -0.366621 22.3849
57633 1 Ni 58.71 112.72 24.4694 9.94835
97 1 Ni 58.71 75.584 0.714004 1.12006
246 1 Ni 58.71 75.4993 0.660534 3.68743
247 1 Ni 58.71 75.5528 0.851652 6.07487
374 1 Ni 58.71 75.5279 3.19448 1.2009
375 1 Ni 58.71 75.4801 3.24155 3.71631
481 1 Ni 58.71 75.4509 5.73221 1.09327
758 1 Ni 58.71 75.5062 3.3454 6.09658
886 1 Ni 58.71 75.5322 5.76142 3.54984
887 1 Ni 58.71 75.4745 5.86455 6.09434
100 1 Ni 58.71 79.0519 0.854921 1.07537
101 1 Ni 58.71 77.3768 2.04583 -0.0166256
104 1 Ni 58.71 80.8829 1.96282 24.8339
250 1 Ni 58.71 79.0277 0.74491 3.68765
251 1 Ni 58.71 78.9647 0.856107 6.14662
252 1 Ni 58.71 77.2577 2.10038 4.88128
256 1 Ni 58.71 80.7095 1.94769 4.9212
377 1 Ni 58.71 77.2656 1.92564 2.37959
378 1 Ni 58.71 79.1583 3.29135 1.07917
379 1 Ni 58.71 79.0515 3.32582 3.53558
380 1 Ni 58.71 77.2244 4.52941 2.35177
381 1 Ni 58.71 80.8049 2.04178 2.43419
384 1 Ni 58.71 80.8281 4.48302 2.44323
483 1 Ni 58.71 77.2769 4.49557 24.9202
484 1 Ni 58.71 79.1065 5.82635 1.0819
486 1 Ni 58.71 80.8987 4.63366 24.936
762 1 Ni 58.71 79.0289 3.35822 6.22239
889 1 Ni 58.71 77.2517 4.5825 4.95827
891 1 Ni 58.71 79.0976 5.76271 6.00649
893 1 Ni 58.71 80.9183 4.50292 4.9135
103 1 Ni 58.71 82.6197 0.797995 1.10096
106 1 Ni 58.71 86.1333 0.772198 1.12194
110 1 Ni 58.71 87.9686 2.05763 -0.00325266
254 1 Ni 58.71 82.5586 0.840798 3.58863
258 1 Ni 58.71 86.1137 0.804139 3.62576
260 1 Ni 58.71 84.3187 1.96924 4.9291
264 1 Ni 58.71 87.9517 2.05406 5.01874
382 1 Ni 58.71 82.6329 3.28836 1.18741
383 1 Ni 58.71 82.7952 3.25537 3.65974
385 1 Ni 58.71 84.3957 2.01157 2.37373
386 1 Ni 58.71 86.24 3.21282 1.18322
387 1 Ni 58.71 86.1319 3.30769 3.69813
388 1 Ni 58.71 84.3907 4.50737 2.41173
389 1 Ni 58.71 87.8591 2.10729 2.4615
490 1 Ni 58.71 86.2227 5.78837 1.25643
492 1 Ni 58.71 87.9759 4.54751 -0.000506736
766 1 Ni 58.71 82.6006 3.24055 6.17942
894 1 Ni 58.71 82.5729 5.88439 3.68987
895 1 Ni 58.71 82.5958 5.84544 6.21724
897 1 Ni 58.71 84.4 4.72526 4.84506
898 1 Ni 58.71 86.1198 5.86084 3.67875
899 1 Ni 58.71 86.1236 5.79925 6.18515
392 1 Ni 58.71 88.0385 4.53317 2.3585
901 1 Ni 58.71 87.9138 4.60187 4.85423
109 1 Ni 58.71 89.7328 0.791857 1.13688
112 1 Ni 58.71 93.2034 0.808856 1.19801
113 1 Ni 58.71 91.5271 2.1176 24.913
262 1 Ni 58.71 89.7067 0.820465 3.69868
263 1 Ni 58.71 89.6247 0.712849 6.2038
266 1 Ni 58.71 93.2083 0.781638 3.69889
267 1 Ni 58.71 93.3316 0.790401 6.19674
268 1 Ni 58.71 91.3765 2.11032 5.01955
390 1 Ni 58.71 89.7684 3.234 1.14892
391 1 Ni 58.71 89.6877 3.20286 3.5954
393 1 Ni 58.71 91.4903 1.992 2.54602
394 1 Ni 58.71 93.2307 3.32943 1.22671
395 1 Ni 58.71 93.1844 3.25605 3.64048
396 1 Ni 58.71 91.4223 4.47359 2.56288
493 1 Ni 58.71 89.7756 5.80767 1.17749
495 1 Ni 58.71 91.5247 4.5847 24.9344
774 1 Ni 58.71 89.6154 3.21704 6.24168
778 1 Ni 58.71 93.2712 3.2324 6.07764
902 1 Ni 58.71 89.7913 5.84734 3.70646
903 1 Ni 58.71 89.6529 5.70838 6.21036
905 1 Ni 58.71 91.4487 4.55311 4.96108
906 1 Ni 58.71 93.2239 5.76032 3.70512
907 1 Ni 58.71 93.1611 5.77732 6.28737
25657 1 Ni 58.71 28.3089 99.5672 24.8943
115 1 Ni 58.71 96.7809 0.91133 1.26954
116 1 Ni 58.71 94.9536 2.09378 0.0553823
118 1 Ni 58.71 100.416 0.800785 1.28374
119 1 Ni 58.71 98.5186 1.95112 -8.02294e-05
270 1 Ni 58.71 96.8689 0.805401 3.67214
272 1 Ni 58.71 95.0621 1.96008 4.86561
274 1 Ni 58.71 100.272 0.933594 3.801
276 1 Ni 58.71 98.4012 2.12413 4.98316
397 1 Ni 58.71 94.9224 1.99487 2.42412
398 1 Ni 58.71 96.8494 3.21632 1.27447
399 1 Ni 58.71 96.6684 3.20601 3.62635
400 1 Ni 58.71 94.9767 4.61526 2.43193
401 1 Ni 58.71 98.5868 2.11656 2.50925
402 1 Ni 58.71 100.289 3.25096 1.33332
403 1 Ni 58.71 100.335 3.34438 3.79325
404 1 Ni 58.71 98.45 4.50541 2.5662
498 1 Ni 58.71 95.0123 4.67526 -0.00889839
499 1 Ni 58.71 96.8 5.78132 1.37867
501 1 Ni 58.71 98.5486 4.64024 -0.048426
782 1 Ni 58.71 96.8057 3.28805 6.20428
909 1 Ni 58.71 94.9686 4.46635 4.95293
910 1 Ni 58.71 96.6625 5.74165 3.79687
913 1 Ni 58.71 98.605 4.45913 5.00866
914 1 Ni 58.71 100.352 5.76358 3.7816
26221 1 Ni 58.71 67.2662 99.503 9.87277
121 1 Ni 58.71 103.859 0.771582 1.21554
122 1 Ni 58.71 102.104 2.00346 -0.0645322
125 1 Ni 58.71 105.654 1.99137 -0.0439037
278 1 Ni 58.71 103.777 0.732856 3.77484
279 1 Ni 58.71 103.723 0.757663 6.29799
280 1 Ni 58.71 102.057 2.02141 4.97484
284 1 Ni 58.71 105.511 1.96399 5.013
405 1 Ni 58.71 102.075 2.07374 2.40924
406 1 Ni 58.71 103.765 3.18256 1.17428
407 1 Ni 58.71 103.851 3.25377 3.80434
408 1 Ni 58.71 102.189 4.51892 2.51827
409 1 Ni 58.71 105.517 2.08612 2.51095
412 1 Ni 58.71 105.512 4.52578 2.50467
504 1 Ni 58.71 102.058 4.62107 0.0233677
505 1 Ni 58.71 103.895 5.815 1.2088
507 1 Ni 58.71 105.608 4.51583 -0.0350876
790 1 Ni 58.71 103.895 3.26099 6.30604
917 1 Ni 58.71 102.171 4.6366 4.98442
918 1 Ni 58.71 103.891 5.83412 3.71223
921 1 Ni 58.71 105.563 4.42389 4.92267
68644 1 Ni 58.71 112.905 62.0593 20.0069
54433 1 Ni 58.71 112.633 2.03504 22.4522
68260 1 Ni 58.71 112.936 74.4374 2.41873
124 1 Ni 58.71 107.271 0.860043 1.19602
127 1 Ni 58.71 110.822 0.758976 1.29524
128 1 Ni 58.71 109.131 2.09046 0.0880971
282 1 Ni 58.71 107.295 0.716041 3.71211
283 1 Ni 58.71 107.327 0.696338 6.17707
286 1 Ni 58.71 110.877 0.737437 3.68503
287 1 Ni 58.71 110.864 0.860183 6.08356
288 1 Ni 58.71 109.12 2.02692 4.99288
410 1 Ni 58.71 107.357 3.31059 1.31248
411 1 Ni 58.71 107.345 3.19034 3.80334
413 1 Ni 58.71 109.041 2.03311 2.49063
414 1 Ni 58.71 110.866 3.25864 1.29359
415 1 Ni 58.71 110.805 3.19893 3.7365
416 1 Ni 58.71 109.042 4.58261 2.4624
508 1 Ni 58.71 107.29 5.8785 1.13946
510 1 Ni 58.71 109.161 4.5701 0.0385382
511 1 Ni 58.71 110.94 5.66633 1.1688
794 1 Ni 58.71 107.304 3.29596 6.27036
922 1 Ni 58.71 107.33 5.79822 3.6731
923 1 Ni 58.71 107.377 5.80135 6.23793
925 1 Ni 58.71 109.042 4.48592 4.94043
926 1 Ni 58.71 110.88 5.73973 3.68171
927 1 Ni 58.71 110.797 5.72008 6.14124
21796 1 Ni 58.71 -0.0099312 87.1516 9.82482
422 1 Ni 58.71 3.0042 7.18501 24.8221
808 1 Ni 58.71 3.15022 7.00886 4.96116
930 1 Ni 58.71 1.26581 8.27294 1.22996
931 1 Ni 58.71 1.28566 8.28286 3.84585
933 1 Ni 58.71 3.06216 7.20489 2.51248
934 1 Ni 58.71 4.77675 8.37818 1.15417
935 1 Ni 58.71 4.84637 8.39398 3.66252
936 1 Ni 58.71 2.94684 9.6477 2.50631
1058 1 Ni 58.71 1.17805 10.7454 1.22843
1061 1 Ni 58.71 4.89492 10.8348 1.30658
1570 1 Ni 58.71 1.31522 8.32643 6.25033
1574 1 Ni 58.71 4.81307 8.27813 6.21476
1698 1 Ni 58.71 1.19321 10.8374 3.65346
1699 1 Ni 58.71 1.24856 10.8437 6.31701
1701 1 Ni 58.71 3.02027 9.60486 4.94858
1702 1 Ni 58.71 4.86457 10.7466 3.70829
1703 1 Ni 58.71 4.80511 10.7492 6.16235
1704 1 Ni 58.71 3.09298 12.0452 4.90362
1829 1 Ni 58.71 3.1102 12.077 2.36611
2125 1 Ni 58.71 38.3909 -0.396884 19.8029
812 1 Ni 58.71 6.47443 7.08485 4.87721
816 1 Ni 58.71 10.1811 7.18083 4.95561
937 1 Ni 58.71 6.64322 7.11584 2.29995
938 1 Ni 58.71 8.4316 8.2659 1.04807
939 1 Ni 58.71 8.32039 8.25139 3.6127
940 1 Ni 58.71 6.588 9.53089 2.39601
941 1 Ni 58.71 10.2005 6.94594 2.47977
942 1 Ni 58.71 11.8456 8.28695 1.20536
943 1 Ni 58.71 11.9438 8.35954 3.70304
944 1 Ni 58.71 10.1511 9.52751 2.43073
1064 1 Ni 58.71 8.33799 10.8146 1.15932
1067 1 Ni 58.71 11.9023 10.7957 1.16171
1578 1 Ni 58.71 8.34431 8.26343 6.11157
1582 1 Ni 58.71 11.9241 8.2596 6.24795
1705 1 Ni 58.71 6.60331 9.58223 4.89901
1706 1 Ni 58.71 8.40515 10.7769 3.74013
1707 1 Ni 58.71 8.3968 10.7667 6.19886
1708 1 Ni 58.71 6.65823 11.9648 4.9997
1709 1 Ni 58.71 10.1127 9.5492 4.85558
1710 1 Ni 58.71 12.0426 10.7632 3.67724
1711 1 Ni 58.71 11.8739 10.7441 6.20839
1712 1 Ni 58.71 10.1593 12.0819 4.95925
1833 1 Ni 58.71 6.64046 12.0103 2.45307
1837 1 Ni 58.71 10.1457 12.0391 2.37512
431 1 Ni 58.71 13.7216 6.95698 24.9451
820 1 Ni 58.71 13.599 7.1061 4.87526
824 1 Ni 58.71 17.2808 7.05617 4.9386
945 1 Ni 58.71 13.6878 7.02403 2.40189
946 1 Ni 58.71 15.4394 8.33297 1.12372
947 1 Ni 58.71 15.5241 8.27153 3.72348
948 1 Ni 58.71 13.6251 9.52034 2.36454
949 1 Ni 58.71 17.2623 6.95189 2.26596
952 1 Ni 58.71 17.3143 9.52231 2.42133
1069 1 Ni 58.71 13.8192 9.54553 -0.0443223
1070 1 Ni 58.71 15.5301 10.7552 1.24405
1713 1 Ni 58.71 13.6774 9.47318 4.87566
1714 1 Ni 58.71 15.4748 10.6941 3.62409
1715 1 Ni 58.71 15.5187 10.755 6.17336
1716 1 Ni 58.71 13.9146 11.9465 4.99073
1717 1 Ni 58.71 17.3192 9.48572 4.9875
1720 1 Ni 58.71 17.2463 12.1206 4.99958
1841 1 Ni 58.71 13.7272 12.023 2.52554
1845 1 Ni 58.71 17.3613 11.9793 2.46213
826 1 Ni 58.71 22.4289 5.81092 3.64762
437 1 Ni 58.71 20.7786 7.01379 24.7545
828 1 Ni 58.71 20.7181 7.0976 4.95202
832 1 Ni 58.71 24.2998 6.92184 4.82499
950 1 Ni 58.71 19.0145 8.28943 1.09317
951 1 Ni 58.71 19.0167 8.3234 3.65348
953 1 Ni 58.71 20.7029 6.97537 2.37775
954 1 Ni 58.71 22.4622 8.26869 1.27881
955 1 Ni 58.71 22.4433 8.24173 3.742
956 1 Ni 58.71 20.8325 9.47783 2.45725
957 1 Ni 58.71 24.1753 7.06295 2.43951
960 1 Ni 58.71 24.161 9.54248 2.40263
1073 1 Ni 58.71 19.06 10.7716 1.13806
1075 1 Ni 58.71 20.8447 9.61843 24.9529
1076 1 Ni 58.71 22.5268 10.8148 1.07747
1590 1 Ni 58.71 19.0284 8.38564 6.19736
1594 1 Ni 58.71 22.5156 8.29908 6.11465
1718 1 Ni 58.71 19.005 10.829 3.78576
1719 1 Ni 58.71 18.9234 10.8194 6.19848
1721 1 Ni 58.71 20.6998 9.54304 4.95612
1722 1 Ni 58.71 22.5241 10.7981 3.63228
1723 1 Ni 58.71 22.5577 10.6787 6.24149
1724 1 Ni 58.71 20.8348 11.9826 4.94104
1725 1 Ni 58.71 24.2428 9.5349 4.92033
1728 1 Ni 58.71 24.1833 11.8578 4.92105
1849 1 Ni 58.71 20.7046 11.9708 2.34256
1853 1 Ni 58.71 24.3091 11.924 2.28583
834 1 Ni 58.71 29.4865 5.71162 3.58582
836 1 Ni 58.71 27.7904 7.0145 4.89411
958 1 Ni 58.71 26.0412 8.12825 1.05427
959 1 Ni 58.71 25.9192 8.22679 3.63124
961 1 Ni 58.71 27.8091 6.99226 2.35159
962 1 Ni 58.71 29.6182 8.17528 1.21798
963 1 Ni 58.71 29.5759 8.31113 3.76872
964 1 Ni 58.71 27.7719 9.44604 2.56496
1079 1 Ni 58.71 26.0398 10.6141 1.13643
1082 1 Ni 58.71 29.51 10.7025 1.11451
1598 1 Ni 58.71 26.0239 8.31514 6.06344
1602 1 Ni 58.71 29.6536 8.314 6.20313
1726 1 Ni 58.71 25.9921 10.7155 3.77286
1727 1 Ni 58.71 26.0602 10.7889 6.16768
1729 1 Ni 58.71 27.7471 9.62195 4.87278
1730 1 Ni 58.71 29.592 10.8239 3.75324
1731 1 Ni 58.71 29.55 10.8709 6.13113
1732 1 Ni 58.71 27.8217 12.0901 4.85271
1857 1 Ni 58.71 27.7831 11.989 2.46993
843 1 Ni 58.71 36.689 5.73887 6.15605
840 1 Ni 58.71 31.3015 6.93647 4.9782
844 1 Ni 58.71 34.9917 7.00601 4.80864
965 1 Ni 58.71 31.3287 7.01725 2.50821
966 1 Ni 58.71 33.0873 8.37828 1.16826
967 1 Ni 58.71 33.1418 8.3115 3.73509
968 1 Ni 58.71 31.3704 9.5763 2.35126
969 1 Ni 58.71 34.8535 7.13012 2.38979
970 1 Ni 58.71 36.5711 8.27884 1.17966
971 1 Ni 58.71 36.7023 8.22038 3.63401
972 1 Ni 58.71 34.8261 9.54304 2.42208
1085 1 Ni 58.71 33.1708 10.7706 1.22223
1088 1 Ni 58.71 36.6322 10.784 1.10978
1606 1 Ni 58.71 33.185 8.15407 6.16803
1610 1 Ni 58.71 36.6934 8.20413 6.19843
1733 1 Ni 58.71 31.3706 9.51673 4.90748
1734 1 Ni 58.71 33.1996 10.8365 3.68412
1735 1 Ni 58.71 33.1 10.5888 6.30848
1736 1 Ni 58.71 31.4065 12.001 4.96732
1737 1 Ni 58.71 34.9806 9.52018 4.96564
1738 1 Ni 58.71 36.6282 10.776 3.608
1739 1 Ni 58.71 36.7599 10.7273 6.20062
1740 1 Ni 58.71 34.9515 11.9511 5.03849
1861 1 Ni 58.71 31.3655 12.0603 2.53995
1865 1 Ni 58.71 34.969 12.019 2.32199
848 1 Ni 58.71 38.375 7.03873 4.77982
852 1 Ni 58.71 41.9077 7.11424 4.94676
973 1 Ni 58.71 38.3824 7.05091 2.32006
974 1 Ni 58.71 40.2669 8.27048 1.0424
975 1 Ni 58.71 40.2088 8.23813 3.50222
976 1 Ni 58.71 38.4014 9.49938 2.3577
977 1 Ni 58.71 42.0775 6.99078 2.289
979 1 Ni 58.71 43.6212 8.24241 3.54273
980 1 Ni 58.71 42.0477 9.41654 2.34368
1091 1 Ni 58.71 40.3085 10.691 1.05698
1094 1 Ni 58.71 43.7952 10.7607 1.04996
1614 1 Ni 58.71 40.1808 8.33583 6.09371
1618 1 Ni 58.71 43.7438 8.29356 6.07135
1741 1 Ni 58.71 38.4267 9.6377 4.96165
1742 1 Ni 58.71 40.1159 10.7297 3.57872
1743 1 Ni 58.71 40.1935 10.8784 6.27484
1744 1 Ni 58.71 38.3884 12.0508 4.84364
1745 1 Ni 58.71 42.0074 9.58404 4.8172
1746 1 Ni 58.71 43.755 10.7169 3.62729
1747 1 Ni 58.71 43.7114 10.7844 6.18335
1748 1 Ni 58.71 41.9415 11.9976 4.97878
1869 1 Ni 58.71 38.3175 12.0137 2.26306
1873 1 Ni 58.71 42.0114 11.9353 2.45476
978 1 Ni 58.71 43.7676 8.25401 1.04712
856 1 Ni 58.71 45.517 7.18511 4.865
860 1 Ni 58.71 48.9203 7.13889 4.79393
981 1 Ni 58.71 45.5025 7.00845 2.38236
982 1 Ni 58.71 47.3056 8.29763 1.15657
983 1 Ni 58.71 47.289 8.30991 3.61057
984 1 Ni 58.71 45.4156 9.44184 2.38083
985 1 Ni 58.71 49.1414 7.01815 2.35766
988 1 Ni 58.71 49.1005 9.59632 2.39099
1097 1 Ni 58.71 47.2091 10.7933 1.24435
1622 1 Ni 58.71 47.259 8.41236 6.03254
1749 1 Ni 58.71 45.4791 9.57013 4.8633
1750 1 Ni 58.71 47.2512 10.8025 3.68757
1751 1 Ni 58.71 47.2897 10.8905 6.11007
1752 1 Ni 58.71 45.3799 12.0869 4.86978
1753 1 Ni 58.71 49.0543 9.56758 4.94633
1756 1 Ni 58.71 49.1467 12.1006 4.9248
1877 1 Ni 58.71 45.4165 11.9705 2.45457
1881 1 Ni 58.71 49.071 12.0673 2.43621
864 1 Ni 58.71 52.5858 7.03201 4.86383
868 1 Ni 58.71 56.0538 7.01632 5.00629
986 1 Ni 58.71 50.8342 8.24879 1.15136
987 1 Ni 58.71 50.8877 8.3056 3.67301
989 1 Ni 58.71 52.5296 7.00344 2.43949
990 1 Ni 58.71 54.3504 8.14154 1.24054
991 1 Ni 58.71 54.3822 8.209 3.70627
992 1 Ni 58.71 52.5296 9.4967 2.44635
993 1 Ni 58.71 56.0428 7.03414 2.52014
996 1 Ni 58.71 56.0842 9.51396 2.42837
1100 1 Ni 58.71 50.8749 10.7282 1.1308
1103 1 Ni 58.71 54.4091 10.6978 1.0622
1104 1 Ni 58.71 52.6448 12.0048 -0.00442313
1626 1 Ni 58.71 50.8152 8.37124 6.18189
1630 1 Ni 58.71 54.3036 8.38416 6.16276
1754 1 Ni 58.71 50.8423 10.8648 3.60562
1755 1 Ni 58.71 50.8905 10.7448 6.19249
1757 1 Ni 58.71 52.6109 9.55078 4.87616
1758 1 Ni 58.71 54.3733 10.7607 3.60812
1759 1 Ni 58.71 54.3168 10.7922 6.19631
1760 1 Ni 58.71 52.5658 12.0945 4.87297
1761 1 Ni 58.71 56.1193 9.54271 4.9811
1764 1 Ni 58.71 56.1077 12.095 4.87119
1885 1 Ni 58.71 52.6394 12.0474 2.44889
1889 1 Ni 58.71 56.1353 11.9241 2.33656
872 1 Ni 58.71 59.5645 7.04974 4.90473
994 1 Ni 58.71 57.7923 8.22507 1.23634
995 1 Ni 58.71 57.8359 8.30105 3.6952
997 1 Ni 58.71 59.6518 7.12414 2.43647
998 1 Ni 58.71 61.4844 8.23166 1.15123
999 1 Ni 58.71 61.3872 8.32691 3.80186
1000 1 Ni 58.71 59.7302 9.48806 2.37193
1106 1 Ni 58.71 57.9597 10.7203 1.18535
1109 1 Ni 58.71 61.4702 10.761 1.122
1634 1 Ni 58.71 57.8784 8.23446 6.15722
1638 1 Ni 58.71 61.411 8.28258 6.24355
1762 1 Ni 58.71 57.9086 10.7309 3.69566
1763 1 Ni 58.71 57.8251 10.8515 6.09478
1765 1 Ni 58.71 59.5493 9.5255 4.91208
1766 1 Ni 58.71 61.5013 10.6716 3.62851
1767 1 Ni 58.71 61.4631 10.7267 6.08484
1768 1 Ni 58.71 59.6979 11.9758 4.88691
1893 1 Ni 58.71 59.6381 11.9447 2.44462
874 1 Ni 58.71 64.968 5.83519 3.68153
878 1 Ni 58.71 68.5169 5.76426 3.64537
876 1 Ni 58.71 63.2059 6.92299 4.92783
880 1 Ni 58.71 66.7504 6.98101 4.79676
1001 1 Ni 58.71 63.1215 7.08852 2.50117
1002 1 Ni 58.71 64.9623 8.23865 1.17088
1003 1 Ni 58.71 64.9669 8.32407 3.73442
1004 1 Ni 58.71 63.1589 9.53313 2.35711
1005 1 Ni 58.71 66.6781 7.03944 2.30645
1006 1 Ni 58.71 68.4449 8.38565 1.1061
1007 1 Ni 58.71 68.4645 8.28308 3.69348
1008 1 Ni 58.71 66.7123 9.50224 2.44158
1112 1 Ni 58.71 64.9344 10.7288 1.14601
1115 1 Ni 58.71 68.5012 10.7898 1.19374
1116 1 Ni 58.71 66.7076 11.9282 24.9394
1642 1 Ni 58.71 64.9303 8.26383 6.21108
1646 1 Ni 58.71 68.3459 8.39625 6.15522
1769 1 Ni 58.71 63.1813 9.46614 4.92556
1770 1 Ni 58.71 65.0271 10.7764 3.61443
1771 1 Ni 58.71 64.8909 10.8397 6.15004
1772 1 Ni 58.71 63.1645 12.0651 4.86072
1773 1 Ni 58.71 66.6067 9.57442 4.94231
1774 1 Ni 58.71 68.3953 10.8273 3.69359
1775 1 Ni 58.71 68.3418 10.8815 6.2315
1776 1 Ni 58.71 66.6821 12.1015 4.97477
1897 1 Ni 58.71 63.119 12.0488 2.48704
1901 1 Ni 58.71 66.7113 11.9985 2.40331
884 1 Ni 58.71 70.2242 6.99675 4.79032
888 1 Ni 58.71 73.7656 7.03137 4.86839
1009 1 Ni 58.71 70.225 7.0093 2.39964
1010 1 Ni 58.71 71.9621 8.2703 1.23388
1011 1 Ni 58.71 72.0008 8.3885 3.70541
1012 1 Ni 58.71 70.171 9.47739 2.46905
1013 1 Ni 58.71 73.7253 7.14074 2.46398
1016 1 Ni 58.71 73.7574 9.55292 2.48825
1118 1 Ni 58.71 71.9849 10.7507 1.29397
1119 1 Ni 58.71 70.129 12.0224 -0.0294828
1120 1 Ni 58.71 73.681 9.53636 0.0356636
1122 1 Ni 58.71 73.8127 12.034 -0.022368
1650 1 Ni 58.71 71.9274 8.31855 6.17044
1777 1 Ni 58.71 70.1346 9.60574 5.01474
1778 1 Ni 58.71 71.9635 10.8403 3.79632
1779 1 Ni 58.71 71.9492 10.703 6.21366
1780 1 Ni 58.71 70.2528 12.1302 4.97888
1781 1 Ni 58.71 73.8539 9.47586 4.93563
1784 1 Ni 58.71 73.6936 11.9718 5.02727
1905 1 Ni 58.71 70.3069 12.0731 2.3973
1909 1 Ni 58.71 73.8029 11.97 2.4105
890 1 Ni 58.71 79.0382 5.75605 3.52888
1014 1 Ni 58.71 75.5398 8.28529 0.986796
1015 1 Ni 58.71 75.6103 8.19886 3.59873
1121 1 Ni 58.71 75.4854 10.6846 1.05937
1654 1 Ni 58.71 75.5517 8.3215 6.14387
1782 1 Ni 58.71 75.4706 10.814 3.72445
1783 1 Ni 58.71 75.4941 10.7332 6.18863
485 1 Ni 58.71 77.1711 6.96307 24.7906
488 1 Ni 58.71 80.8867 7.13814 24.905
892 1 Ni 58.71 77.3102 7.03064 4.87243
896 1 Ni 58.71 80.7607 6.99226 4.82597
1017 1 Ni 58.71 77.3071 7.00982 2.29297
1018 1 Ni 58.71 79.085 8.31579 1.11523
1019 1 Ni 58.71 79.0227 8.20021 3.6968
1020 1 Ni 58.71 77.2126 9.59025 2.37393
1021 1 Ni 58.71 80.801 6.998 2.34145
1024 1 Ni 58.71 80.886 9.54494 2.38523
1123 1 Ni 58.71 77.3342 9.44103 24.834
1124 1 Ni 58.71 79.1335 10.7228 1.13079
1126 1 Ni 58.71 80.8493 9.62668 -0.0125098
1128 1 Ni 58.71 80.9178 11.9916 24.8594
1658 1 Ni 58.71 79.1206 8.40884 6.16357
1785 1 Ni 58.71 77.2736 9.59057 4.76967
1786 1 Ni 58.71 79.0054 10.8086 3.7188
1787 1 Ni 58.71 79.192 10.7905 6.15648
1788 1 Ni 58.71 77.2586 11.9867 5.04356
1789 1 Ni 58.71 80.8515 9.51417 4.83467
1792 1 Ni 58.71 80.8227 12.0944 4.81746
1913 1 Ni 58.71 77.2363 11.9629 2.37986
1917 1 Ni 58.71 80.8514 12.0755 2.34299
487 1 Ni 58.71 82.6779 5.76747 1.28836
494 1 Ni 58.71 88.0217 7.09343 -0.0188768
900 1 Ni 58.71 84.38 7.09345 5.00157
904 1 Ni 58.71 87.8874 7.12035 4.9657
1022 1 Ni 58.71 82.5666 8.28261 1.18245
1023 1 Ni 58.71 82.5821 8.24438 3.59623
1025 1 Ni 58.71 84.3674 7.11817 2.52511
1026 1 Ni 58.71 86.2124 8.24465 1.29454
1027 1 Ni 58.71 86.1226 8.35825 3.71094
1028 1 Ni 58.71 84.3654 9.56005 2.45403
1127 1 Ni 58.71 82.6248 10.8552 1.24295
1129 1 Ni 58.71 84.4263 9.47411 24.9316
1130 1 Ni 58.71 86.1875 10.6984 1.2513
1131 1 Ni 58.71 84.3614 12.0361 -0.0470428
1662 1 Ni 58.71 82.6346 8.26113 6.156
1666 1 Ni 58.71 86.1193 8.30422 6.26004
1790 1 Ni 58.71 82.6276 10.7943 3.63196
1793 1 Ni 58.71 84.3757 9.56796 4.94335