ITEM: TIMESTEP
0
ITEM: NUMBER OF ATOMS
102400
ITEM: BOX BOUNDS xy xz yz pp pp pp
-4.3848296820317501e-01 2.2571848296820320e+02 0.0000000000000000e+00
-4.0226414123958421e-01 1.9952353372337114e+02 0.0000000000000000e+00
-4.9032250470792960e-02 2.4939190948237314e+01 0.0000000000000000e+00
ITEM: ATOMS id type element mass x y z
34 1 Ni 58.71 1.41271 0.744309 1.1737
37 1 Ni 58.71 4.83088 0.78537 1.19257
162 1 Ni 58.71 1.29305 0.886543 3.6096
163 1 Ni 58.71 1.18752 0.87266 6.11628
166 1 Ni 58.71 4.84236 0.807686 3.71773
167 1 Ni 58.71 4.76618 0.736036 6.12739
168 1 Ni 58.71 2.99056 2.11917 4.92034
290 1 Ni 58.71 1.30507 3.24231 1.18219
291 1 Ni 58.71 1.17217 3.36208 3.65573
293 1 Ni 58.71 3.1316 2.02162 2.43871
294 1 Ni 58.71 4.78556 3.25337 1.12778
295 1 Ni 58.71 4.86091 3.3476 3.69073
296 1 Ni 58.71 3.06006 4.49526 2.3543
418 1 Ni 58.71 1.2149 5.72931 1.15612
421 1 Ni 58.71 4.82938 5.83991 1.25423
674 1 Ni 58.71 1.33036 3.33832 6.11186
678 1 Ni 58.71 4.81675 3.29268 6.09445
802 1 Ni 58.71 1.15737 5.84885 3.65817
803 1 Ni 58.71 1.22697 5.86591 6.14633
805 1 Ni 58.71 3.02592 4.59445 4.82248
806 1 Ni 58.71 4.84823 5.78182 3.61021
807 1 Ni 58.71 4.76381 5.81734 6.14107
289 1 Ni 58.71 -0.379236 1.96732 2.41682
165 1 Ni 58.71 3.03106 -0.392065 4.96506
40 1 Ni 58.71 8.36233 0.750808 1.20148
43 1 Ni 58.71 11.919 0.857491 1.21995
170 1 Ni 58.71 8.37531 0.788781 3.62243
171 1 Ni 58.71 8.30782 0.836417 6.1835
172 1 Ni 58.71 6.55223 2.07662 4.84046
174 1 Ni 58.71 11.9265 0.873646 3.75724
175 1 Ni 58.71 11.9357 0.766246 6.16829
176 1 Ni 58.71 10.157 2.02669 4.84849
297 1 Ni 58.71 6.58312 2.03913 2.36943
298 1 Ni 58.71 8.38288 3.23805 1.18621
299 1 Ni 58.71 8.31675 3.22808 3.67649
300 1 Ni 58.71 6.62166 4.49104 2.47327
301 1 Ni 58.71 10.1004 2.039 2.41166
302 1 Ni 58.71 11.806 3.23593 1.13203
303 1 Ni 58.71 11.9345 3.37414 3.5619
304 1 Ni 58.71 10.1013 4.55068 2.42801
424 1 Ni 58.71 8.32681 5.73845 1.18603
427 1 Ni 58.71 11.8394 5.75464 1.15385
682 1 Ni 58.71 8.35855 3.14544 6.11038
686 1 Ni 58.71 11.9235 3.2197 6.108
809 1 Ni 58.71 6.62901 4.58346 4.94678
810 1 Ni 58.71 8.37847 5.69291 3.71586
811 1 Ni 58.71 8.30454 5.81861 6.22076
813 1 Ni 58.71 10.0956 4.52739 4.80834
814 1 Ni 58.71 11.8813 5.75531 3.574
815 1 Ni 58.71 11.8585 5.82521 6.11019
169 1 Ni 58.71 6.54921 -0.399618 4.8935
46 1 Ni 58.71 15.5178 0.857067 1.13078
47 1 Ni 58.71 13.6529 2.12696 -0.026712
178 1 Ni 58.71 15.4769 0.70027 3.53782
179 1 Ni 58.71 15.4681 0.709302 6.10732
180 1 Ni 58.71 13.745 2.03026 4.79265
184 1 Ni 58.71 17.2711 2.05176 4.84383
305 1 Ni 58.71 13.6295 2.06562 2.33439
306 1 Ni 58.71 15.4679 3.32127 1.16844
307 1 Ni 58.71 15.4903 3.16322 3.60448
308 1 Ni 58.71 13.6827 4.58679 2.34527
309 1 Ni 58.71 17.2256 2.07283 2.32717
312 1 Ni 58.71 17.2043 4.65433 2.32156
430 1 Ni 58.71 15.3744 5.77024 1.1007
690 1 Ni 58.71 15.4768 3.22876 6.14367
817 1 Ni 58.71 13.5876 4.48399 4.91255
818 1 Ni 58.71 15.3235 5.80602 3.69506
819 1 Ni 58.71 15.3685 5.75889 6.19214
821 1 Ni 58.71 17.1218 4.38574 4.83079
45 1 Ni 58.71 13.6415 -0.380527 -0.0466079
181 1 Ni 58.71 17.2555 -0.340857 4.83235
49 1 Ni 58.71 19.0166 0.770192 1.17095
52 1 Ni 58.71 22.4685 0.822421 0.983367
182 1 Ni 58.71 19.0471 0.854039 3.59513
183 1 Ni 58.71 18.9691 0.799563 6.1721
186 1 Ni 58.71 22.4511 0.77643 3.59273
187 1 Ni 58.71 22.5148 0.773865 6.1146
188 1 Ni 58.71 20.6606 2.14315 4.97624
192 1 Ni 58.71 24.3323 2.18134 4.80328
310 1 Ni 58.71 18.9798 3.35781 1.06399
311 1 Ni 58.71 19.0536 3.357 3.65946
313 1 Ni 58.71 20.8336 2.10123 2.42855
314 1 Ni 58.71 22.5371 3.34098 1.13733
315 1 Ni 58.71 22.5461 3.42051 3.66502
316 1 Ni 58.71 20.7218 4.63801 2.39841
317 1 Ni 58.71 24.1512 2.02274 2.427
320 1 Ni 58.71 24.3957 4.65714 2.48209
433 1 Ni 58.71 18.9425 5.89851 1.22121
436 1 Ni 58.71 22.5632 5.84885 1.17003
694 1 Ni 58.71 19.0086 3.43442 6.16698
698 1 Ni 58.71 22.5168 3.25615 6.10472
822 1 Ni 58.71 19.0717 5.86081 3.77946
823 1 Ni 58.71 18.9434 5.80953 6.12899
825 1 Ni 58.71 20.7644 4.59934 4.85323
827 1 Ni 58.71 22.5301 5.79072 6.15804
829 1 Ni 58.71 24.3257 4.66364 4.89274
185 1 Ni 58.71 20.7253 -0.332888 4.92871
193 1 Ni 58.71 27.7698 -0.34063 4.83763
55 1 Ni 58.71 25.9085 0.935198 1.11664
58 1 Ni 58.71 29.6351 0.773097 1.12871
190 1 Ni 58.71 26.0259 0.886782 3.54714
191 1 Ni 58.71 26.0245 0.815788 6.17304
194 1 Ni 58.71 29.5971 0.896791 3.74567
195 1 Ni 58.71 29.6016 0.809182 6.19083
196 1 Ni 58.71 27.7823 2.0667 4.92928
318 1 Ni 58.71 26.0325 3.32486 1.14053
319 1 Ni 58.71 26.1209 3.45044 3.62882
321 1 Ni 58.71 27.8439 2.02668 2.403
322 1 Ni 58.71 29.5359 3.35773 1.11174
323 1 Ni 58.71 29.6754 3.41059 3.62852
324 1 Ni 58.71 27.8902 4.69125 2.40835
439 1 Ni 58.71 26.1027 5.86367 1.07429
442 1 Ni 58.71 29.5892 5.77864 1.0065
702 1 Ni 58.71 26.1016 3.41643 6.22462
706 1 Ni 58.71 29.6117 3.34429 6.08172
830 1 Ni 58.71 26.2427 5.88952 3.59122
831 1 Ni 58.71 26.1287 5.84542 6.06522
833 1 Ni 58.71 27.919 4.62784 4.97127
61 1 Ni 58.71 33.0514 0.810383 1.07908
64 1 Ni 58.71 36.6776 0.888251 1.1453
198 1 Ni 58.71 33.079 0.855935 3.55519
199 1 Ni 58.71 33.1903 0.821021 6.12404
200 1 Ni 58.71 31.3906 2.18957 4.94091
202 1 Ni 58.71 36.6109 0.907232 3.64291
203 1 Ni 58.71 36.537 0.944015 6.08256
204 1 Ni 58.71 34.8362 2.17322 4.83743
325 1 Ni 58.71 31.3231 2.11133 2.28175
326 1 Ni 58.71 33.0809 3.29296 1.1741
327 1 Ni 58.71 33.04 3.35313 3.70194
328 1 Ni 58.71 31.3503 4.66012 2.37197
329 1 Ni 58.71 34.766 2.10634 2.39622
330 1 Ni 58.71 36.6303 3.40609 1.25144
331 1 Ni 58.71 36.6361 3.37275 3.5984
332 1 Ni 58.71 34.9222 4.57659 2.42718
445 1 Ni 58.71 33.1183 5.85316 1.17059
448 1 Ni 58.71 36.6033 5.84159 1.17257
714 1 Ni 58.71 36.5162 3.40121 6.0604
837 1 Ni 58.71 31.3369 4.74496 4.89302
838 1 Ni 58.71 33.1427 5.89127 3.70441
839 1 Ni 58.71 33.0819 5.86661 6.22249
841 1 Ni 58.71 34.8084 4.61993 4.91306
842 1 Ni 58.71 36.5126 5.77927 3.61954
197 1 Ni 58.71 31.401 -0.31452 4.81047
11 1 Ni 58.71 34.8233 -0.36917 2.40174
10 1 Ni 58.71 31.3681 -0.401049 2.26362
201 1 Ni 58.71 34.9241 -0.316427 4.86084
205 1 Ni 58.71 38.337 -0.360396 4.89284
67 1 Ni 58.71 40.1235 0.870163 1.24116
206 1 Ni 58.71 40.1867 0.75378 3.7681
207 1 Ni 58.71 40.2027 0.888145 6.20117
208 1 Ni 58.71 38.316 2.11559 4.8722
210 1 Ni 58.71 43.7149 0.852575 3.64255
212 1 Ni 58.71 41.9349 2.07251 4.86226
333 1 Ni 58.71 38.3577 2.12021 2.33192
334 1 Ni 58.71 40.2836 3.38851 1.20303
335 1 Ni 58.71 40.1586 3.18735 3.67784
336 1 Ni 58.71 38.377 4.53767 2.30927
337 1 Ni 58.71 41.8637 2.07614 2.40835
338 1 Ni 58.71 43.594 3.39921 1.20213
340 1 Ni 58.71 41.9435 4.6776 2.50721
451 1 Ni 58.71 40.1585 5.84912 1.12334
453 1 Ni 58.71 41.9781 4.60815 -0.0126825
454 1 Ni 58.71 43.6053 5.76832 1.02076
718 1 Ni 58.71 40.0163 3.30523 6.07664
722 1 Ni 58.71 43.697 3.31842 6.05699
845 1 Ni 58.71 38.3489 4.5743 4.80406
846 1 Ni 58.71 40.1831 5.78138 3.57233
847 1 Ni 58.71 40.0656 5.76538 6.04228
849 1 Ni 58.71 41.817 4.4927 4.91969
850 1 Ni 58.71 43.6954 5.83443 3.69779
851 1 Ni 58.71 43.6432 5.77686 6.14626
13 1 Ni 58.71 41.9339 -0.33063 2.45944
66 1 Ni 58.71 38.4843 -0.282758 0.0316993
69 1 Ni 58.71 41.9626 -0.229382 -0.048754
70 1 Ni 58.71 43.7678 0.995852 1.28494
211 1 Ni 58.71 43.7488 0.849032 6.09353
339 1 Ni 58.71 43.8019 3.19344 3.65428
73 1 Ni 58.71 47.3004 0.731207 1.22483
74 1 Ni 58.71 45.4864 2.18294 0.00316066
214 1 Ni 58.71 47.3283 0.862712 3.7187
215 1 Ni 58.71 47.2024 0.808832 6.20219
216 1 Ni 58.71 45.5479 2.02067 4.94105
220 1 Ni 58.71 48.9763 2.02372 4.94647
341 1 Ni 58.71 45.5719 2.06721 2.3316
342 1 Ni 58.71 47.1889 3.35899 1.21099
343 1 Ni 58.71 47.2718 3.37973 3.60357
344 1 Ni 58.71 45.325 4.6544 2.34787
345 1 Ni 58.71 49.0077 2.07209 2.46057
348 1 Ni 58.71 49.0012 4.66095 2.41884
457 1 Ni 58.71 47.3124 5.80709 1.15484
726 1 Ni 58.71 47.269 3.30233 6.05555
853 1 Ni 58.71 45.4912 4.6296 4.86931
854 1 Ni 58.71 47.2918 5.77429 3.73339
855 1 Ni 58.71 47.1689 5.81389 6.14253
857 1 Ni 58.71 49.0103 4.52538 4.91943
15 1 Ni 58.71 49.1016 -0.27741 2.42814
213 1 Ni 58.71 45.4628 -0.395797 4.89239
76 1 Ni 58.71 50.7712 0.84045 1.11712
79 1 Ni 58.71 54.2786 0.96 1.13415
218 1 Ni 58.71 50.779 0.773058 3.67374
219 1 Ni 58.71 50.7341 0.806178 6.20695
222 1 Ni 58.71 54.2969 0.880981 3.548
223 1 Ni 58.71 54.2982 0.908479 6.06492
224 1 Ni 58.71 52.5652 2.08683 4.91964
228 1 Ni 58.71 56.1278 2.06242 4.78719
346 1 Ni 58.71 50.7261 3.34404 1.15108
347 1 Ni 58.71 50.7639 3.3356 3.70724
349 1 Ni 58.71 52.4323 1.97797 2.39881
350 1 Ni 58.71 54.2453 3.33305 1.093
351 1 Ni 58.71 54.2501 3.35791 3.62851
352 1 Ni 58.71 52.4471 4.45881 2.36597
353 1 Ni 58.71 56.0862 2.02508 2.29921
356 1 Ni 58.71 56.0331 4.59515 2.3272
460 1 Ni 58.71 50.7241 5.79417 1.17172
463 1 Ni 58.71 54.2424 5.7592 1.08274
730 1 Ni 58.71 50.7824 3.24608 6.13541
734 1 Ni 58.71 54.2486 3.31204 6.17007
858 1 Ni 58.71 50.6871 5.88206 3.73481
859 1 Ni 58.71 50.8223 5.89413 6.14994
861 1 Ni 58.71 52.5766 4.50966 4.89223
862 1 Ni 58.71 54.3424 5.80509 3.66599
863 1 Ni 58.71 54.3935 5.82711 6.02426
865 1 Ni 58.71 56.1477 4.50782 4.88023
82 1 Ni 58.71 57.8874 0.77002 1.10797
85 1 Ni 58.71 61.3625 0.85023 1.23694
226 1 Ni 58.71 57.9219 0.809014 3.72506
227 1 Ni 58.71 57.8854 0.782936 6.21617
230 1 Ni 58.71 61.462 0.842886 3.64432
231 1 Ni 58.71 61.3704 0.848944 6.0693
232 1 Ni 58.71 59.6229 2.01248 4.96095
354 1 Ni 58.71 57.8733 3.32245 1.1519
355 1 Ni 58.71 57.9289 3.21651 3.54581
357 1 Ni 58.71 59.6674 2.07608 2.39013
358 1 Ni 58.71 61.454 3.37713 1.25467
359 1 Ni 58.71 61.4532 3.34415 3.59847
360 1 Ni 58.71 59.624 4.63173 2.34314
466 1 Ni 58.71 57.8115 5.84273 1.18383
469 1 Ni 58.71 61.4343 5.88422 1.15055
738 1 Ni 58.71 57.9372 3.2636 6.10158
742 1 Ni 58.71 61.4343 3.21749 6.13224
866 1 Ni 58.71 57.9037 5.82877 3.74553
867 1 Ni 58.71 57.8848 5.70776 6.23829
869 1 Ni 58.71 59.735 4.45456 4.8875
870 1 Ni 58.71 61.4141 5.86433 3.65913
871 1 Ni 58.71 61.4267 5.66347 6.22122
88 1 Ni 58.71 64.919 0.767358 1.18584
89 1 Ni 58.71 63.0697 2.09762 -0.0464258
91 1 Ni 58.71 68.513 0.770119 1.16273
92 1 Ni 58.71 66.7695 2.06234 -0.048411
234 1 Ni 58.71 64.9536 0.814083 3.5848
235 1 Ni 58.71 64.8811 0.798982 6.15637
236 1 Ni 58.71 63.0919 2.03484 4.86475
238 1 Ni 58.71 68.4831 0.903228 3.70777
239 1 Ni 58.71 68.5981 0.762332 6.11411
240 1 Ni 58.71 66.7725 2.06964 4.99893
361 1 Ni 58.71 63.2969 2.11542 2.39462
362 1 Ni 58.71 64.9228 3.31426 1.12467
363 1 Ni 58.71 64.9014 3.47505 3.68146
364 1 Ni 58.71 63.2493 4.63658 2.40118
365 1 Ni 58.71 66.6424 2.16302 2.42352
366 1 Ni 58.71 68.3977 3.3376 1.23671
367 1 Ni 58.71 68.4519 3.45062 3.73999
368 1 Ni 58.71 66.6483 4.58418 2.45377
472 1 Ni 58.71 65.0449 5.80564 1.0887
475 1 Ni 58.71 68.441 5.83087 1.33488
746 1 Ni 58.71 64.8097 3.23789 6.15164
750 1 Ni 58.71 68.5873 3.38992 6.2079
873 1 Ni 58.71 63.2036 4.58436 4.94066
875 1 Ni 58.71 64.8695 5.80313 6.18351
877 1 Ni 58.71 66.6463 4.62266 4.88364
879 1 Ni 58.71 68.4357 5.85275 6.13984
94 1 Ni 58.71 71.9676 0.826546 1.1921
98 1 Ni 58.71 73.8078 2.01399 0.0843337
242 1 Ni 58.71 71.9804 0.74527 3.6518
243 1 Ni 58.71 71.9707 0.786473 6.10981
244 1 Ni 58.71 70.2978 2.0486 4.9163
248 1 Ni 58.71 73.8305 2.04114 4.88925
369 1 Ni 58.71 70.2059 2.18565 2.47218
370 1 Ni 58.71 71.9652 3.24347 1.28522
371 1 Ni 58.71 71.9915 3.29722 3.80396
372 1 Ni 58.71 70.3177 4.64726 2.56949
373 1 Ni 58.71 73.7922 2.0761 2.46842
376 1 Ni 58.71 73.7966 4.5551 2.51608
477 1 Ni 58.71 70.3012 4.5531 0.0136512
478 1 Ni 58.71 72.0241 5.82802 1.19914
480 1 Ni 58.71 73.6437 4.50834 0.0265504
881 1 Ni 58.71 70.2177 4.63993 4.99604
882 1 Ni 58.71 71.9738 5.87023 3.77804
883 1 Ni 58.71 71.946 5.81128 6.23867
885 1 Ni 58.71 73.7219 4.62405 5.05592
22 1 Ni 58.71 73.8346 -0.356715 2.55654
245 1 Ni 58.71 73.6991 -0.367393 5.01063
97 1 Ni 58.71 75.591 0.836986 1.27522
246 1 Ni 58.71 75.5859 0.86293 3.72213
247 1 Ni 58.71 75.572 0.850702 6.1757
374 1 Ni 58.71 75.5869 3.22401 1.25421
375 1 Ni 58.71 75.5043 3.32894 3.75973
481 1 Ni 58.71 75.5575 5.81961 1.21924
758 1 Ni 58.71 75.4484 3.31092 6.23122
886 1 Ni 58.71 75.4367 5.83424 3.68928
887 1 Ni 58.71 75.4542 5.85436 6.20874
100 1 Ni 58.71 79.036 0.788672 1.14436
101 1 Ni 58.71 77.2497 2.09755 -0.0334368
104 1 Ni 58.71 80.8122 1.94966 -0.0140877
250 1 Ni 58.71 79.0223 0.833881 3.70895
251 1 Ni 58.71 79.1298 0.854919 6.2266
252 1 Ni 58.71 77.2977 2.09794 5.02071
256 1 Ni 58.71 80.893 2.07202 4.93918
377 1 Ni 58.71 77.4083 2.03815 2.47337
378 1 Ni 58.71 79.0442 3.32728 1.23709
379 1 Ni 58.71 79.044 3.45298 3.86875
380 1 Ni 58.71 77.266 4.54734 2.46176
381 1 Ni 58.71 80.762 2.00088 2.52408
384 1 Ni 58.71 80.8912 4.48999 2.35967
483 1 Ni 58.71 77.282 4.56792 -0.043365
484 1 Ni 58.71 79.0755 5.8629 1.26696
486 1 Ni 58.71 80.918 4.55488 -0.0270092
762 1 Ni 58.71 78.9934 3.28084 6.25898
889 1 Ni 58.71 77.2341 4.62592 4.9908
891 1 Ni 58.71 78.9668 5.82307 6.24373
893 1 Ni 58.71 80.8942 4.57689 4.9367
103 1 Ni 58.71 82.5756 0.77646 1.30474
106 1 Ni 58.71 86.0535 0.853319 1.33875
110 1 Ni 58.71 87.8248 2.07879 -0.0452145
254 1 Ni 58.71 82.5815 0.744131 3.75595
258 1 Ni 58.71 86.0613 0.909741 3.83209
260 1 Ni 58.71 84.3604 1.99349 4.98546
264 1 Ni 58.71 87.8742 2.08967 5.03873
382 1 Ni 58.71 82.6543 3.28248 1.25573
383 1 Ni 58.71 82.6732 3.31963 3.81562
385 1 Ni 58.71 84.3554 2.03103 2.4896
386 1 Ni 58.71 86.0466 3.43195 1.24293
387 1 Ni 58.71 86.1145 3.29336 3.74527
388 1 Ni 58.71 84.2895 4.65316 2.48037
389 1 Ni 58.71 87.8906 1.91851 2.56024
490 1 Ni 58.71 86.1126 5.86366 1.2166
492 1 Ni 58.71 87.8638 4.52977 0.0922108
766 1 Ni 58.71 82.6024 3.27232 6.19732
894 1 Ni 58.71 82.5627 5.90351 3.74274
895 1 Ni 58.71 82.643 5.77919 6.2485
897 1 Ni 58.71 84.2966 4.48329 4.96823
898 1 Ni 58.71 86.1959 5.84315 3.73907
899 1 Ni 58.71 86.2003 5.77633 6.18997
392 1 Ni 58.71 87.9297 4.61062 2.62188
901 1 Ni 58.71 87.9544 4.56914 4.9601
109 1 Ni 58.71 89.6532 0.837091 1.16305
112 1 Ni 58.71 93.0908 0.755626 1.28134
113 1 Ni 58.71 91.3815 2.08983 0.047353
262 1 Ni 58.71 89.6642 0.838879 3.70256
263 1 Ni 58.71 89.6013 0.787243 6.185
266 1 Ni 58.71 93.0837 0.877601 3.78582
267 1 Ni 58.71 93.1575 0.654218 6.24374
268 1 Ni 58.71 91.4068 2.06101 5.06815
390 1 Ni 58.71 89.7016 3.34476 1.34263
391 1 Ni 58.71 89.6195 3.26926 3.78873
393 1 Ni 58.71 91.4377 2.05877 2.55979
394 1 Ni 58.71 93.1374 3.37576 1.26574
395 1 Ni 58.71 93.1744 3.33014 3.74096
396 1 Ni 58.71 91.4478 4.61554 2.48867
493 1 Ni 58.71 89.6426 5.81977 1.23777
495 1 Ni 58.71 91.3178 4.68326 -0.0311857
774 1 Ni 58.71 89.6779 3.31709 6.26105
778 1 Ni 58.71 93.1152 3.2838 6.19329
902 1 Ni 58.71 89.6986 5.81057 3.7487
903 1 Ni 58.71 89.6197 5.86469 6.21731
905 1 Ni 58.71 91.4894 4.54618 4.90872
906 1 Ni 58.71 93.1935 5.87204 3.6422
907 1 Ni 58.71 93.3044 5.71877 6.14845
117 1 Ni 58.71 98.5715 -0.367964 0.0156255
115 1 Ni 58.71 96.679 0.828098 1.23645
116 1 Ni 58.71 94.8896 2.09581 0.0102056
118 1 Ni 58.71 100.254 0.853568 1.23103
119 1 Ni 58.71 98.4574 2.1221 -0.00738904
270 1 Ni 58.71 96.6319 0.802193 3.83274
272 1 Ni 58.71 94.7695 1.93643 5.06862
274 1 Ni 58.71 100.223 0.922162 3.75446
276 1 Ni 58.71 98.4866 2.08054 4.96125
397 1 Ni 58.71 94.9053 2.04841 2.65162
398 1 Ni 58.71 96.6182 3.30824 1.11677
399 1 Ni 58.71 96.7502 3.23184 3.65935
400 1 Ni 58.71 94.9447 4.63364 2.52129
401 1 Ni 58.71 98.4706 2.0606 2.45439
402 1 Ni 58.71 100.241 3.4341 1.26549
403 1 Ni 58.71 100.161 3.37447 3.7805
404 1 Ni 58.71 98.4314 4.65578 2.51521
498 1 Ni 58.71 94.9162 4.60595 0.0276992
499 1 Ni 58.71 96.6576 5.80108 1.27844
501 1 Ni 58.71 98.5176 4.64207 -0.0273489
782 1 Ni 58.71 96.6438 3.2424 6.14985
909 1 Ni 58.71 94.9483 4.45738 4.89467
910 1 Ni 58.71 96.6829 5.85506 3.7845
913 1 Ni 58.71 98.4132 4.62359 5.01527
914 1 Ni 58.71 100.197 5.78905 3.79673
28 1 Ni 58.71 94.9042 -0.373157 2.47401
121 1 Ni 58.71 103.813 0.80581 1.15355
122 1 Ni 58.71 102.026 2.10336 0.023326
125 1 Ni 58.71 105.522 2.01897 0.0411586
278 1 Ni 58.71 103.786 0.85847 3.73061
279 1 Ni 58.71 103.792 0.895976 6.16435
280 1 Ni 58.71 102.009 2.0939 5.02377
284 1 Ni 58.71 105.524 2.05156 4.99648
405 1 Ni 58.71 101.969 2.08899 2.55367
406 1 Ni 58.71 103.83 3.33785 1.14903
407 1 Ni 58.71 103.99 3.33124 3.72357
408 1 Ni 58.71 102.055 4.62715 2.49201
409 1 Ni 58.71 105.569 2.0553 2.45802
412 1 Ni 58.71 105.6 4.5749 2.53276
504 1 Ni 58.71 102.089 4.56981 -0.0385229
505 1 Ni 58.71 103.785 5.81402 1.31751
507 1 Ni 58.71 105.597 4.68575 0.0264202
790 1 Ni 58.71 103.824 3.30955 6.22606
917 1 Ni 58.71 102.049 4.53229 4.96892
918 1 Ni 58.71 103.819 5.81862 3.80282
921 1 Ni 58.71 105.661 4.68612 4.91888
120 1 Ni 58.71 101.975 -0.356978 -0.0420239
281 1 Ni 58.71 105.514 -0.343903 5.09205
30 1 Ni 58.71 101.991 -0.384559 2.44667
124 1 Ni 58.71 107.419 0.835605 1.23997
127 1 Ni 58.71 110.95 0.829831 1.17259
128 1 Ni 58.71 109.123 2.08954 -0.02531
282 1 Ni 58.71 107.407 0.797053 3.66033
283 1 Ni 58.71 107.407 0.797276 6.21097
286 1 Ni 58.71 110.954 0.768952 3.68178
287 1 Ni 58.71 110.968 0.801082 6.13107
288 1 Ni 58.71 109.154 1.98163 4.94495
410 1 Ni 58.71 107.291 3.33067 1.28889
411 1 Ni 58.71 107.432 3.2708 3.82307
413 1 Ni 58.71 109.193 2.07593 2.43865
414 1 Ni 58.71 110.924 3.23232 1.27958
415 1 Ni 58.71 110.904 3.37031 3.72333
416 1 Ni 58.71 109.104 4.52678 2.46864
508 1 Ni 58.71 107.446 5.75351 1.15013
510 1 Ni 58.71 109.248 4.64494 -0.0163979
511 1 Ni 58.71 110.965 5.71095 1.19716
794 1 Ni 58.71 107.452 3.28082 6.1745
922 1 Ni 58.71 107.39 5.86406 3.68832
923 1 Ni 58.71 107.361 5.73763 6.12515
925 1 Ni 58.71 109.203 4.5825 4.98365
926 1 Ni 58.71 111.034 5.80848 3.67177
927 1 Ni 58.71 111.036 5.77148 6.23274
51235 1 Ni 58.71 112.606 2.01646 -0.0470385
422 1 Ni 58.71 3.00263 7.00019 0.0333427
808 1 Ni 58.71 3.00534 7.09351 5.01469
930 1 Ni 58.71 1.20444 8.25027 1.24424
931 1 Ni 58.71 1.25038 8.25494 3.60716
933 1 Ni 58.71 2.97573 6.98938 2.46842
934 1 Ni 58.71 4.82458 8.27681 1.11223
935 1 Ni 58.71 4.8887 8.28263 3.61109
936 1 Ni 58.71 3.18237 9.53979 2.37747
1058 1 Ni 58.71 1.27935 10.6714 1.16654
1061 1 Ni 58.71 4.78872 10.8251 1.15146
1570 1 Ni 58.71 1.23863 8.3663 6.19209
1574 1 Ni 58.71 4.6907 8.31726 6.15815
1698 1 Ni 58.71 1.28037 10.6764 3.63705
1699 1 Ni 58.71 1.25417 10.7656 6.07358
1701 1 Ni 58.71 3.00676 9.49349 4.78351
1702 1 Ni 58.71 4.77822 10.7615 3.7248
1703 1 Ni 58.71 4.81391 10.7374 6.19046
1704 1 Ni 58.71 3.08672 11.9602 4.94487
1829 1 Ni 58.71 3.10392 12.1036 2.41422
1825 1 Ni 58.71 -0.37145 11.9239 2.37207
812 1 Ni 58.71 6.5694 6.99668 4.88629
816 1 Ni 58.71 10.1222 7.06435 4.85083
937 1 Ni 58.71 6.73227 7.03706 2.49377
938 1 Ni 58.71 8.30322 8.35962 1.19565
939 1 Ni 58.71 8.37194 8.26929 3.68493
940 1 Ni 58.71 6.54836 9.52572 2.4174
941 1 Ni 58.71 10.21 7.06997 2.41836
942 1 Ni 58.71 11.862 8.36195 1.20649
943 1 Ni 58.71 11.9902 8.32428 3.58964
944 1 Ni 58.71 10.1651 9.52721 2.39607
1064 1 Ni 58.71 8.34261 10.7292 1.20387
1067 1 Ni 58.71 11.918 10.7802 1.12761
1578 1 Ni 58.71 8.35484 8.23148 6.23816
1582 1 Ni 58.71 11.8447 8.30672 6.18773
1705 1 Ni 58.71 6.51405 9.54027 4.82794
1706 1 Ni 58.71 8.38931 10.8289 3.569
1707 1 Ni 58.71 8.54084 10.7954 6.18436
1708 1 Ni 58.71 6.63533 11.9286 4.9617
1709 1 Ni 58.71 10.1984 9.50897 4.87878
1710 1 Ni 58.71 11.8471 10.825 3.64012
1711 1 Ni 58.71 11.9738 10.7717 6.13536
1712 1 Ni 58.71 10.1843 12.0364 4.98814
1833 1 Ni 58.71 6.55591 11.948 2.42478
1837 1 Ni 58.71 10.0714 12.1187 2.40184
431 1 Ni 58.71 13.5657 7.02544 -0.0135942
820 1 Ni 58.71 13.6264 7.10869 4.96227
824 1 Ni 58.71 17.1684 6.96613 4.86546
945 1 Ni 58.71 13.6931 7.04948 2.42198
946 1 Ni 58.71 15.4277 8.23814 1.26564
947 1 Ni 58.71 15.3671 8.28365 3.73392
948 1 Ni 58.71 13.8091 9.61147 2.42969
949 1 Ni 58.71 17.2145 7.03067 2.46995
952 1 Ni 58.71 17.1191 9.57592 2.36967
1069 1 Ni 58.71 13.6571 9.64975 -0.0315028
1070 1 Ni 58.71 15.5055 10.8561 1.0862
1713 1 Ni 58.71 13.6429 9.5801 4.94815
1714 1 Ni 58.71 15.4724 10.8645 3.66362
1715 1 Ni 58.71 15.454 10.7397 6.22351
1716 1 Ni 58.71 13.615 12.081 4.87118
1717 1 Ni 58.71 17.157 9.56216 4.92498
1720 1 Ni 58.71 17.2697 11.9882 4.98625
1841 1 Ni 58.71 13.5522 12.0567 2.41665
1845 1 Ni 58.71 17.1239 12.1233 2.44425
826 1 Ni 58.71 22.5593 5.9564 3.62092
437 1 Ni 58.71 20.8266 7.09903 -0.0270603
828 1 Ni 58.71 20.8519 7.06006 4.80851
832 1 Ni 58.71 24.388 7.04048 4.79988
950 1 Ni 58.71 18.9254 8.47218 1.213
951 1 Ni 58.71 18.9908 8.3294 3.68987
953 1 Ni 58.71 20.7158 7.04374 2.43258
954 1 Ni 58.71 22.5023 8.29402 1.07286
955 1 Ni 58.71 22.5766 8.34917 3.53364
956 1 Ni 58.71 20.699 9.48165 2.45426
957 1 Ni 58.71 24.4095 7.12199 2.37351
960 1 Ni 58.71 24.2954 9.60157 2.36368
1073 1 Ni 58.71 18.8932 10.9289 1.18534
1075 1 Ni 58.71 20.656 9.6306 0.0274201
1076 1 Ni 58.71 22.5559 10.7808 1.17728
1590 1 Ni 58.71 19.0659 8.2683 6.03377
1594 1 Ni 58.71 22.4988 8.20659 5.99642
1718 1 Ni 58.71 19.0251 10.8655 3.65248
1719 1 Ni 58.71 19.0597 10.7064 6.13444
1721 1 Ni 58.71 20.7114 9.54212 4.8333
1722 1 Ni 58.71 22.4382 10.831 3.71919
1723 1 Ni 58.71 22.4616 10.8812 6.23909
1724 1 Ni 58.71 20.7189 12.2177 4.89324
1725 1 Ni 58.71 24.3131 9.50912 4.90782
1728 1 Ni 58.71 24.2197 12.0738 4.83921
1849 1 Ni 58.71 20.6566 12.0038 2.4624
1853 1 Ni 58.71 24.2658 12.0973 2.46027
834 1 Ni 58.71 29.5746 5.95589 3.66372
836 1 Ni 58.71 27.8722 7.155 4.83567
958 1 Ni 58.71 26.0033 8.33781 1.01135
959 1 Ni 58.71 26.1168 8.44142 3.53847
961 1 Ni 58.71 27.8824 7.17387 2.21338
962 1 Ni 58.71 29.6716 8.42869 1.13475
963 1 Ni 58.71 29.5581 8.40884 3.6741
964 1 Ni 58.71 27.8097 9.74707 2.40331
1079 1 Ni 58.71 26.011 10.8901 1.19308
1082 1 Ni 58.71 29.6192 10.792 1.08941
1598 1 Ni 58.71 26.0814 8.32273 6.13417
1602 1 Ni 58.71 29.6702 8.32431 6.13623
1726 1 Ni 58.71 26.0544 10.9782 3.67554
1727 1 Ni 58.71 25.9311 10.9373 6.19249
1729 1 Ni 58.71 27.761 9.608 5.03834
1730 1 Ni 58.71 29.6331 10.8548 3.68063
1731 1 Ni 58.71 29.5101 10.7732 6.18928
1732 1 Ni 58.71 27.8451 12.0865 5.00148
1857 1 Ni 58.71 27.8213 12.189 2.35798
843 1 Ni 58.71 36.4945 5.94538 6.10652
840 1 Ni 58.71 31.4044 7.17118 4.90462
844 1 Ni 58.71 34.8693 7.16241 4.82061
965 1 Ni 58.71 31.3693 7.21867 2.46797
966 1 Ni 58.71 33.1266 8.40558 1.11081
967 1 Ni 58.71 33.1189 8.43902 3.65798
968 1 Ni 58.71 31.4 9.61905 2.38225
969 1 Ni 58.71 34.8313 7.10856 2.35673
970 1 Ni 58.71 36.6163 8.30859 1.06677
971 1 Ni 58.71 36.6963 8.3604 3.53938
972 1 Ni 58.71 34.8922 9.53808 2.34996
1085 1 Ni 58.71 33.1436 10.878 1.11458
1088 1 Ni 58.71 36.5688 10.8603 1.08425
1606 1 Ni 58.71 33.0074 8.36368 6.22803
1610 1 Ni 58.71 36.6319 8.31801 6.0753
1733 1 Ni 58.71 31.3576 9.59131 4.84289
1734 1 Ni 58.71 33.2098 10.8769 3.68272
1735 1 Ni 58.71 33.1851 10.8382 6.05195
1736 1 Ni 58.71 31.383 12.0024 4.9585
1737 1 Ni 58.71 34.9556 9.62464 4.94282
1738 1 Ni 58.71 36.6699 10.7377 3.59909
1739 1 Ni 58.71 36.7171 10.8475 6.11529
1740 1 Ni 58.71 34.8918 12.0478 4.93467
1861 1 Ni 58.71 31.4543 12.0936 2.41921
1865 1 Ni 58.71 34.8607 12.1258 2.40097
848 1 Ni 58.71 38.4157 7.00751 4.86041
852 1 Ni 58.71 41.9358 7.08331 4.86164
973 1 Ni 58.71 38.3185 7.06572 2.41008
974 1 Ni 58.71 40.0882 8.33062 1.13879
975 1 Ni 58.71 40.1204 8.3329 3.69114
976 1 Ni 58.71 38.4033 9.56881 2.41793
977 1 Ni 58.71 41.9156 7.04627 2.39045
979 1 Ni 58.71 43.7175 8.3618 3.67079
980 1 Ni 58.71 41.857 9.53589 2.41418
1091 1 Ni 58.71 40.0972 10.8084 1.12947
1094 1 Ni 58.71 43.688 10.8235 1.10629
1614 1 Ni 58.71 40.1267 8.21545 6.11198
1618 1 Ni 58.71 43.727 8.35231 6.0501
1741 1 Ni 58.71 38.3538 9.57444 5.01667
1742 1 Ni 58.71 40.1999 10.8526 3.66599
1743 1 Ni 58.71 40.096 10.7592 6.17509
1744 1 Ni 58.71 38.5003 12.058 4.86774
1745 1 Ni 58.71 41.9357 9.59546 4.93872
1746 1 Ni 58.71 43.6443 10.8581 3.60645
1747 1 Ni 58.71 43.6825 10.7788 6.17882
1748 1 Ni 58.71 41.8284 12.0706 4.91555
1869 1 Ni 58.71 38.3331 12.0477 2.39331
1873 1 Ni 58.71 41.8744 12.0805 2.26404
978 1 Ni 58.71 43.7629 8.34669 1.13551
856 1 Ni 58.71 45.5306 7.03718 4.82559
860 1 Ni 58.71 48.9653 7.033 4.80268
981 1 Ni 58.71 45.3972 7.03018 2.31865
982 1 Ni 58.71 47.1605 8.29335 1.16863
983 1 Ni 58.71 47.1945 8.2105 3.61986
984 1 Ni 58.71 45.394 9.635 2.44893
985 1 Ni 58.71 48.9347 7.21655 2.34821
988 1 Ni 58.71 48.868 9.6522 2.40044
1097 1 Ni 58.71 47.2236 10.7925 1.03438
1622 1 Ni 58.71 47.3656 8.28291 6.09505
1749 1 Ni 58.71 45.5075 9.59743 4.88858
1750 1 Ni 58.71 47.3063 10.796 3.80171
1751 1 Ni 58.71 47.2217 10.8138 6.15815
1752 1 Ni 58.71 45.3919 12.0422 4.97683
1753 1 Ni 58.71 49.0894 9.50264 4.80686
1756 1 Ni 58.71 49.0944 12.0744 4.87717
1877 1 Ni 58.71 45.4699 12.0337 2.3974
1881 1 Ni 58.71 49.0705 12.0817 2.39173
864 1 Ni 58.71 52.5729 7.06298 4.86454
868 1 Ni 58.71 56.1105 7.01299 4.91268
986 1 Ni 58.71 50.6279 8.40405 1.062
987 1 Ni 58.71 50.7653 8.37155 3.54839
989 1 Ni 58.71 52.5384 7.091 2.27034
990 1 Ni 58.71 54.4016 8.22167 1.06035
991 1 Ni 58.71 54.3338 8.33387 3.62449
992 1 Ni 58.71 52.5159 9.56427 2.25881
993 1 Ni 58.71 56.0816 7.04639 2.44754
996 1 Ni 58.71 56.2092 9.50088 2.43908
1100 1 Ni 58.71 50.7571 10.7936 1.07099
1103 1 Ni 58.71 54.3067 10.7362 1.15907
1104 1 Ni 58.71 52.5416 12.1097 0.0142063
1626 1 Ni 58.71 50.8024 8.36753 6.13986
1630 1 Ni 58.71 54.2977 8.34455 6.05393
1754 1 Ni 58.71 50.7569 10.8706 3.64011
1755 1 Ni 58.71 50.7563 10.8086 6.06808
1757 1 Ni 58.71 52.4793 9.5167 4.78119
1758 1 Ni 58.71 54.2821 10.7918 3.56496
1759 1 Ni 58.71 54.2033 10.7297 5.99967
1760 1 Ni 58.71 52.5098 12.0391 4.74669
1761 1 Ni 58.71 56.1593 9.54387 4.91208
1764 1 Ni 58.71 56.1251 12.0241 4.81716
1885 1 Ni 58.71 52.4523 12.1544 2.32959
1889 1 Ni 58.71 56.1617 12.0336 2.34758
872 1 Ni 58.71 59.6918 6.93228 5.07955
994 1 Ni 58.71 57.9346 8.38221 1.14096
995 1 Ni 58.71 57.9884 8.29587 3.66743
997 1 Ni 58.71 59.5607 7.05853 2.41152
998 1 Ni 58.71 61.3312 8.30231 1.14994
999 1 Ni 58.71 61.3434 8.41501 3.62757
1000 1 Ni 58.71 59.6554 9.70186 2.30536
1106 1 Ni 58.71 57.9362 10.8224 1.11851
1109 1 Ni 58.71 61.5267 10.8872 1.0812
1634 1 Ni 58.71 57.8989 8.23416 6.21762
1638 1 Ni 58.71 61.3927 8.43101 6.07417
1762 1 Ni 58.71 57.9499 10.694 3.57389
1763 1 Ni 58.71 57.8634 10.8472 6.11789
1765 1 Ni 58.71 59.5914 9.53718 4.88181
1766 1 Ni 58.71 61.3961 10.8167 3.64566
1767 1 Ni 58.71 61.3093 10.9423 6.06946
1768 1 Ni 58.71 59.6963 12.1612 4.84045
1893 1 Ni 58.71 59.7028 12.1251 2.37249
874 1 Ni 58.71 64.8746 6.01605 3.75363
878 1 Ni 58.71 68.4583 5.93652 3.66335
876 1 Ni 58.71 63.0474 7.08672 4.94551
880 1 Ni 58.71 66.6286 7.15375 4.85488
1001 1 Ni 58.71 63.1528 7.18979 2.34712
1002 1 Ni 58.71 64.8497 8.39856 1.14065
1003 1 Ni 58.71 64.8899 8.44122 3.64573
1004 1 Ni 58.71 63.1772 9.59058 2.41948
1005 1 Ni 58.71 66.5952 7.15127 2.36982
1006 1 Ni 58.71 68.417 8.30077 1.10255
1007 1 Ni 58.71 68.3789 8.31762 3.60649
1008 1 Ni 58.71 66.6645 9.59555 2.3772
1112 1 Ni 58.71 64.9448 10.8298 1.08857
1115 1 Ni 58.71 68.5125 10.6909 1.17894
1116 1 Ni 58.71 66.7577 11.9819 -0.0179561
1642 1 Ni 58.71 64.9444 8.34782 6.16349
1646 1 Ni 58.71 68.3852 8.42431 6.042
1769 1 Ni 58.71 63.1684 9.63514 5.05714
1770 1 Ni 58.71 64.9579 10.8861 3.79787
1771 1 Ni 58.71 64.9493 10.8348 6.23301
1772 1 Ni 58.71 63.1387 12.0758 4.95192
1773 1 Ni 58.71 66.6805 9.5951 4.92461
1774 1 Ni 58.71 68.3764 10.7006 3.70771
1775 1 Ni 58.71 68.4333 10.9454 6.17312
1776 1 Ni 58.71 66.6773 12.0931 4.99382
1897 1 Ni 58.71 63.1523 12.1828 2.37346
1901 1 Ni 58.71 66.7072 12.0083 2.56151
884 1 Ni 58.71 70.2043 7.18869 4.93284
888 1 Ni 58.71 73.6914 7.11352 4.94039
1009 1 Ni 58.71 70.2552 7.03639 2.45252
1010 1 Ni 58.71 72.1174 8.27104 1.25298
1011 1 Ni 58.71 71.9628 8.35592 3.67049
1012 1 Ni 58.71 70.2626 9.52724 2.49903
1013 1 Ni 58.71 73.8323 7.08043 2.48774
1016 1 Ni 58.71 73.837 9.63165 2.41502
1118 1 Ni 58.71 72.0283 10.7773 1.17705
1119 1 Ni 58.71 70.1983 11.8914 0.0530324
1120 1 Ni 58.71 73.7055 9.55808 0.0346129
1122 1 Ni 58.71 73.6778 12.0012 -0.046303
1650 1 Ni 58.71 72.0249 8.29806 6.14368
1777 1 Ni 58.71 70.2433 9.58924 4.95627
1778 1 Ni 58.71 72.027 10.768 3.7454
1779 1 Ni 58.71 72.0393 10.7169 6.24212
1780 1 Ni 58.71 70.1988 12.0653 4.87981
1781 1 Ni 58.71 73.79 9.61259 4.96239
1784 1 Ni 58.71 73.746 12.1074 4.99975
1905 1 Ni 58.71 70.3107 12.1055 2.54695
1909 1 Ni 58.71 73.7692 12.0943 2.54597
890 1 Ni 58.71 79.0592 5.96456 3.61931
1014 1 Ni 58.71 75.4502 8.23622 1.2457
1015 1 Ni 58.71 75.5793 8.3433 3.70499
1121 1 Ni 58.71 75.4932 10.8272 1.22445
1654 1 Ni 58.71 75.5444 8.37713 6.13654
1782 1 Ni 58.71 75.5364 10.8052 3.78313
1783 1 Ni 58.71 75.5303 10.9017 6.18373
485 1 Ni 58.71 77.3491 7.10529 -0.0125823
488 1 Ni 58.71 80.8606 7.02997 -0.0260245
892 1 Ni 58.71 77.2148 7.06162 5.06421
896 1 Ni 58.71 80.8503 7.00794 5.02318
1017 1 Ni 58.71 77.2181 7.18472 2.42694
1018 1 Ni 58.71 79.0205 8.36239 1.32942
1019 1 Ni 58.71 79.1233 8.36145 3.75534
1020 1 Ni 58.71 77.3531 9.65418 2.57816
1021 1 Ni 58.71 80.8841 7.16591 2.42174
1024 1 Ni 58.71 80.8385 9.63156 2.57126
1123 1 Ni 58.71 77.2861 9.71138 0.0740876
1124 1 Ni 58.71 79.1647 10.822 1.21563
1126 1 Ni 58.71 80.8975 9.56522 -0.0131587
1128 1 Ni 58.71 80.9404 12.1207 0.0036075
1658 1 Ni 58.71 79.0733 8.31962 6.25854
1785 1 Ni 58.71 77.3632 9.60274 5.02283
1786 1 Ni 58.71 79.1007 10.9286 3.78249
1787 1 Ni 58.71 79.1445 10.8184 6.19737
1788 1 Ni 58.71 77.3383 12.112 4.95722
1789 1 Ni 58.71 80.8248 9.5201 4.9602
1792 1 Ni 58.71 80.9458 12.0247 4.89964
1913 1 Ni 58.71 77.2696 12.1034 2.41144
1917 1 Ni 58.71 80.9081 12.1088 2.44565
487 1 Ni 58.71 82.6508 5.97492 1.24585
494 1 Ni 58.71 87.8406 7.11376 0.039248
900 1 Ni 58.71 84.4021 7.05225 4.92385
904 1 Ni 58.71 87.8865 7.1457 4.99628
1022 1 Ni 58.71 82.6107 8.38623 1.27908
1023 1 Ni 58.71 82.5583 8.29768 3.7926
1025 1 Ni 58.71 84.3659 7.11413 2.48975
1026 1 Ni 58.71 86.1284 8.38608 1.35369
1027 1 Ni 58.71 86.1946 8.36349 3.75119
1028 1 Ni 58.71 84.3582 9.56843 2.3868
1127 1 Ni 58.71 82.5824 10.8403 1.19928
1129 1 Ni 58.71 84.434 9.62633 -0.0452629
1130 1 Ni 58.71 86.1916 10.8453 1.26486
1131 1 Ni 58.71 84.318 12.1062 -0.0465511
1662 1 Ni 58.71 82.5285 8.24781 6.2589
1666 1 Ni 58.71 86.1396 8.35146 6.2302
1790 1 Ni 58.71 82.6299 10.7768 3.77942
1793 1 Ni 58.71 84.3428 9.51804 4.97284