LAMMPS (15 Jun 2023)
OMP_NUM_THREADS environment is not set. Defaulting to 1 thread. (src/comm.cpp:98)
  using 1 OpenMP thread(s) per MPI task
Loaded 1 plugins from D:\Program Files (x86)\LAMMPS 64-bit 15Jun2023\plugins
# Compute elastic constant tensor for a crystal
#
# Written by Aidan Thompson (Sandia, athomps@sandia.gov)
#
#  This script uses the following three include files.
#
#   init.mod      (must be modified for different crystal structures)
# 	       	  Define units, deformation parameters and initial
#		  configuration of the atoms and simulation cell.
#
#
#   potential.mod    (must be modified for different pair styles)
# 		     Define pair style and other attributes
#		     not stored in restart file
#
#
#   displace.mod    (displace.mod should not need to be modified)
# 		    Perform positive and negative box displacements
# 		    in direction ${dir} and size ${up}.
# 		    It uses the resultant changes
#		    in stress to compute one
# 		    row of the elastic stiffness tensor
#
#		    Inputs variables:
#		    	   dir = the Voigt deformation component
#		    		    (1,2,3,4,5,6)
#		    Global constants:
#       	    	   up = the deformation magnitude (strain units)
#       		   cfac = conversion from LAMMPS pressure units to
#               	   output units for elastic constants
#
#
#  To run this on a different system, it should only be necessary to
#  modify the files init.mod and potential.mod. In order to calculate
#  the elastic constants correctly, care must be taken to specify
#  the correct units in init.mod (units, cfac and cunits). It is also
#  important to verify that the minimization of energy w.r.t atom
#  positions in the deformed cell is fully converged.
#  One indication of this is that the elastic constants are insensitive
#  to the choice of the variable ${up} in init.mod. Another is to check
#  the final max and two-norm forces reported in the log file. If you know
#  that minimization is not required, you can set maxiter = 0.0 in
#  init.mod.
#

include init.mod
# NOTE: This script can be modified for different atomic structures,
# units, etc. See in.elastic for more info.
#

# Define the finite deformation size. Try several values of this
# variable to verify that results do not depend on it.
variable up equal 1.0e-6

# Define the amount of random jiggle for atoms
# This prevents atoms from staying on saddle points
variable atomjiggle equal 1.0e-5

# Uncomment one of these blocks, depending on what units
# you are using in LAMMPS and for output

# metal units, elastic constants in eV/A^3
#units		metal
#variable cfac equal 6.2414e-7
#variable cunits string eV/A^3

# metal units, elastic constants in GPa
units		metal
variable cfac equal 1.0e-4
variable cunits string GPa

# real units, elastic constants in GPa
#units		real
#variable cfac equal 1.01325e-4
#variable cunits string GPa

# Define minimization parameters
variable etol equal 0.0
variable ftol equal 1.0e-10
variable maxiter equal 100
variable maxeval equal 1000
variable dmax equal 1.0e-2

# generate the box and atom positions using a diamond lattice
variable a equal 3.3

boundary	p p p

lattice         bcc $a
lattice         bcc 3.3
Lattice spacing in x,y,z = 3.3 3.3 3.3
region		box block 0 4 0 4 0 4 units lattice
create_box	1 box
Created orthogonal box = (0 0 0) to (13.2 13.2 13.2)
  1 by 1 by 1 MPI processor grid
create_atoms	1 box
Created 128 atoms
  using lattice units in orthogonal box = (0 0 0) to (13.2 13.2 13.2)
  create_atoms CPU = 0.000 seconds
change_box all triclinic
Changing box ...
  triclinic box = (0 0 0) to (13.2 13.2 13.2) with tilt (0 0 0)

# Need to set mass to something, just to satisfy LAMMPS
mass 1 1.0e-20

include potential.mod
# NOTE: This script can be modified for different pair styles
# See in.elastic for more info.

# Choose potential
pair_style	eam/alloy
pair_coeff * * CuNb.eam.alloy Nb
Reading eam/alloy potential file CuNb.eam.alloy with DATE: 2025-04-10

# Setup neighbor style
neighbor 1.0 nsq
neigh_modify once no every 1 delay 0 check yes

# Setup minimization style
min_style	     cg
min_modify	     dmax ${dmax} line quadratic
min_modify	     dmax 0.01 line quadratic

# Setup output
thermo		1
thermo_style custom step temp pe press pxx pyy pzz pxy pxz pyz lx ly lz vol
thermo_modify norm no

# Compute initial state
fix 3 all box/relax  aniso 0.0
minimize ${etol} ${ftol} ${maxiter} ${maxeval}
minimize 0 ${ftol} ${maxiter} ${maxeval}
minimize 0 1e-10 ${maxiter} ${maxeval}
minimize 0 1e-10 100 ${maxeval}
minimize 0 1e-10 100 1000
Neighbor list info ...
  update: every = 1 steps, delay = 0 steps, check = yes
  max neighbors/atom: 2000, page size: 100000
  master list distance cutoff = 7.3911966
  ghost atom cutoff = 7.3911966
  1 neighbor lists, perpetual/occasional/extra = 1 0 0
  (1) pair eam/alloy, perpetual
      attributes: half, newton on
      pair build: half/nsq/newton
      stencil: none
      bin: none
WARNING: Energy due to 3 extra global DOFs will be included in minimizer energies
 (src/min.cpp:225)
Per MPI rank memory allocation (min/avg/max) = 4.464 | 4.464 | 4.464 Mbytes
   Step          Temp          PotEng         Press           Pxx            Pyy            Pzz            Pxy            Pxz            Pyz             Lx             Ly             Lz           Volume    
         0   0             -968.96106      15.998462      15.998462      15.998462      15.998462      2.2287676e-11  9.7693243e-11  1.1803159e-10  13.2           13.2           13.2           2299.968     
         1   0             -968.96106     -0.0072405131  -0.0072405131  -0.007240513   -0.0072405131   3.6683237e-11  5.8299296e-11  5.9781033e-11  13.200041      13.200041      13.200041      2299.9896    
         2   0             -968.96106     -3.5216212e-07 -3.5215174e-07 -3.521334e-07  -3.5220122e-07 -3.8711553e-12 -1.4500336e-11  1.4010923e-11  13.200041      13.200041      13.200041      2299.9896    
         3   0             -968.96106      2.9556255e-10  3.2465408e-10  2.7615928e-10  2.858743e-10   8.1487829e-12  3.6111423e-11  5.8402971e-11  13.200041      13.200041      13.200041      2299.9896    
Loop time of 0.001077 on 1 procs for 3 steps with 128 atoms

0.0% CPU use with 1 MPI tasks x 1 OpenMP threads

Minimization stats:
  Stopping criterion = force tolerance
  Energy initial, next-to-last, final = 
     -968.961056547372   -968.96105665501  -968.961056654952
  Force two-norm initial, final = 0.039778674 7.4987665e-13
  Force max component initial, final = 0.022966228 4.6605269e-13
  Final line search alpha, max atom move = 1 4.6605269e-13
  Iterations, force evaluations = 3 6

MPI task timing breakdown:
Section |  min time  |  avg time  |  max time  |%varavg| %total
---------------------------------------------------------------
Pair    | 0.000746   | 0.000746   | 0.000746   |   0.0 | 69.27
Neigh   | 0          | 0          | 0          |   0.0 |  0.00
Comm    | 1.6e-05    | 1.6e-05    | 1.6e-05    |   0.0 |  1.49
Output  | 0.000115   | 0.000115   | 0.000115   |   0.0 | 10.68
Modify  | 0          | 0          | 0          |   0.0 |  0.00
Other   |            | 0.0002     |            |       | 18.57

Nlocal:            128 ave         128 max         128 min
Histogram: 1 0 0 0 0 0 0 0 0 0
Nghost:           1113 ave        1113 max        1113 min
Histogram: 1 0 0 0 0 0 0 0 0 0
Neighs:           7168 ave        7168 max        7168 min
Histogram: 1 0 0 0 0 0 0 0 0 0

Total # of neighbors = 7168
Ave neighs/atom = 56
Neighbor list builds = 0
Dangerous builds = 0

variable tmp equal pxx
variable pxx0 equal ${tmp}
variable pxx0 equal 3.24654080164705e-10
variable tmp equal pyy
variable pyy0 equal ${tmp}
variable pyy0 equal 2.76159275831596e-10
variable tmp equal pzz
variable pzz0 equal ${tmp}
variable pzz0 equal 2.8587429653033e-10
variable tmp equal pyz
variable pyz0 equal ${tmp}
variable pyz0 equal 5.84029713895152e-11
variable tmp equal pxz
variable pxz0 equal ${tmp}
variable pxz0 equal 3.61114228805215e-11
variable tmp equal pxy
variable pxy0 equal ${tmp}
variable pxy0 equal 8.14878288733035e-12

variable tmp equal lx
variable lx0 equal ${tmp}
variable lx0 equal 13.200041297274
variable tmp equal ly
variable ly0 equal ${tmp}
variable ly0 equal 13.200041297274
variable tmp equal lz
variable lz0 equal ${tmp}
variable lz0 equal 13.200041297274

# These formulas define the derivatives w.r.t. strain components
# Constants uses $, variables use v_
variable d1 equal -(v_pxx1-${pxx0})/(v_delta/v_len0)*${cfac}
variable d1 equal -(v_pxx1-3.24654080164705e-10)/(v_delta/v_len0)*${cfac}
variable d1 equal -(v_pxx1-3.24654080164705e-10)/(v_delta/v_len0)*0.0001
variable d2 equal -(v_pyy1-${pyy0})/(v_delta/v_len0)*${cfac}
variable d2 equal -(v_pyy1-2.76159275831596e-10)/(v_delta/v_len0)*${cfac}
variable d2 equal -(v_pyy1-2.76159275831596e-10)/(v_delta/v_len0)*0.0001
variable d3 equal -(v_pzz1-${pzz0})/(v_delta/v_len0)*${cfac}
variable d3 equal -(v_pzz1-2.8587429653033e-10)/(v_delta/v_len0)*${cfac}
variable d3 equal -(v_pzz1-2.8587429653033e-10)/(v_delta/v_len0)*0.0001
variable d4 equal -(v_pyz1-${pyz0})/(v_delta/v_len0)*${cfac}
variable d4 equal -(v_pyz1-5.84029713895152e-11)/(v_delta/v_len0)*${cfac}
variable d4 equal -(v_pyz1-5.84029713895152e-11)/(v_delta/v_len0)*0.0001
variable d5 equal -(v_pxz1-${pxz0})/(v_delta/v_len0)*${cfac}
variable d5 equal -(v_pxz1-3.61114228805215e-11)/(v_delta/v_len0)*${cfac}
variable d5 equal -(v_pxz1-3.61114228805215e-11)/(v_delta/v_len0)*0.0001
variable d6 equal -(v_pxy1-${pxy0})/(v_delta/v_len0)*${cfac}
variable d6 equal -(v_pxy1-8.14878288733035e-12)/(v_delta/v_len0)*${cfac}
variable d6 equal -(v_pxy1-8.14878288733035e-12)/(v_delta/v_len0)*0.0001

displace_atoms all random ${atomjiggle} ${atomjiggle} ${atomjiggle} 87287 units box
displace_atoms all random 1e-05 ${atomjiggle} ${atomjiggle} 87287 units box
displace_atoms all random 1e-05 1e-05 ${atomjiggle} 87287 units box
displace_atoms all random 1e-05 1e-05 1e-05 87287 units box
Displacing atoms ...

# Write restart
unfix 3
write_restart restart.equil
System init for write_restart ...

# uxx Perturbation

variable dir equal 1
include displace.mod
# NOTE: This script should not need to be
# modified. See in.elastic for more info.
#
# Find which reference length to use

if "${dir} == 1" then    "variable len0 equal ${lx0}"
variable len0 equal ${lx0}
variable len0 equal 13.200041297274
if "${dir} == 2" then    "variable len0 equal ${ly0}"
if "${dir} == 3" then    "variable len0 equal ${lz0}"
if "${dir} == 4" then    "variable len0 equal ${lz0}"
if "${dir} == 5" then    "variable len0 equal ${lz0}"
if "${dir} == 6" then    "variable len0 equal ${ly0}"

# Reset box and simulation parameters

clear
OMP_NUM_THREADS environment is not set. Defaulting to 1 thread. (src/comm.cpp:98)
  using 1 OpenMP thread(s) per MPI task
Loaded 1 plugins from D:\Program Files (x86)\LAMMPS 64-bit 15Jun2023\plugins
box tilt large

The 'box' command has been removed and will be ignored

read_restart restart.equil
Reading restart file ...
  restart file = 15 Jun 2023, LAMMPS = 15 Jun 2023
  restoring atom style atomic from restart
  triclinic box = (-2.0648637e-05 -2.0648637e-05 -2.0648637e-05) to (13.200021 13.200021 13.200021) with tilt (0 0 0)
  1 by 1 by 1 MPI processor grid
  pair style eam/alloy stores no restart info
  128 atoms
  read_restart CPU = 0.001 seconds
include potential.mod
# NOTE: This script can be modified for different pair styles
# See in.elastic for more info.

# Choose potential
pair_style	eam/alloy
pair_coeff * * CuNb.eam.alloy Nb
Reading eam/alloy potential file CuNb.eam.alloy with DATE: 2025-04-10

# Setup neighbor style
neighbor 1.0 nsq
neigh_modify once no every 1 delay 0 check yes

# Setup minimization style
min_style	     cg
min_modify	     dmax ${dmax} line quadratic
min_modify	     dmax 0.01 line quadratic

# Setup output
thermo		1
thermo_style custom step temp pe press pxx pyy pzz pxy pxz pyz lx ly lz vol
thermo_modify norm no

# Negative deformation

variable delta equal -${up}*${len0}
variable delta equal -1e-06*${len0}
variable delta equal -1e-06*13.200041297274
variable deltaxy equal -${up}*xy
variable deltaxy equal -1e-06*xy
variable deltaxz equal -${up}*xz
variable deltaxz equal -1e-06*xz
variable deltayz equal -${up}*yz
variable deltayz equal -1e-06*yz
if "${dir} == 1" then    "change_box all x delta 0 ${delta} xy delta ${deltaxy} xz delta ${deltaxz} remap units box"
change_box all x delta 0 ${delta} xy delta ${deltaxy} xz delta ${deltaxz} remap units box
change_box all x delta 0 -1.3200041297274e-05 xy delta ${deltaxy} xz delta ${deltaxz} remap units box
change_box all x delta 0 -1.3200041297274e-05 xy delta -0 xz delta ${deltaxz} remap units box
change_box all x delta 0 -1.3200041297274e-05 xy delta -0 xz delta -0 remap units box
Changing box ...
  triclinic box = (-2.0648637e-05 -2.0648637e-05 -2.0648637e-05) to (13.200007 13.200021 13.200021) with tilt (0 0 0)
  triclinic box = (-2.0648637e-05 -2.0648637e-05 -2.0648637e-05) to (13.200007 13.200021 13.200021) with tilt (0 0 0)
  triclinic box = (-2.0648637e-05 -2.0648637e-05 -2.0648637e-05) to (13.200007 13.200021 13.200021) with tilt (0 0 0)
if "${dir} == 2" then    "change_box all y delta 0 ${delta} yz delta ${deltayz} remap units box"
if "${dir} == 3" then    "change_box all z delta 0 ${delta} remap units box"
if "${dir} == 4" then    "change_box all yz delta ${delta} remap units box"
if "${dir} == 5" then    "change_box all xz delta ${delta} remap units box"
if "${dir} == 6" then    "change_box all xy delta ${delta} remap units box"

# Relax atoms positions

minimize ${etol} ${ftol} ${maxiter} ${maxeval}
minimize 0 ${ftol} ${maxiter} ${maxeval}
minimize 0 1e-10 ${maxiter} ${maxeval}
minimize 0 1e-10 100 ${maxeval}
minimize 0 1e-10 100 1000
Neighbor list info ...
  update: every = 1 steps, delay = 0 steps, check = yes
  max neighbors/atom: 2000, page size: 100000
  master list distance cutoff = 7.3911966
  ghost atom cutoff = 7.3911966
  1 neighbor lists, perpetual/occasional/extra = 1 0 0
  (1) pair eam/alloy, perpetual
      attributes: half, newton on
      pair build: half/nsq/newton
      stencil: none
      bin: none
Per MPI rank memory allocation (min/avg/max) = 4.458 | 4.458 | 4.458 Mbytes
   Step          Temp          PotEng         Press           Pxx            Pyy            Pzz            Pxy            Pxz            Pyz             Lx             Ly             Lz           Volume    
         3   0             -968.96106      1.7046134      2.6217221      1.246059       1.2460593      1.0131058e-06  5.6202759e-06 -6.064148e-06   13.200028      13.200041      13.200041      2299.9873    
         4   0             -968.96106      1.7045357      2.6216428      1.2459824      1.2459821     -1.1537267e-06 -1.609178e-06  -6.0511051e-07  13.200028      13.200041      13.200041      2299.9873    
         5   0             -968.96106      1.7045255      2.621632       1.2459722      1.2459722     -3.1727029e-07  1.6444701e-08 -3.1877987e-07  13.200028      13.200041      13.200041      2299.9873    
         6   0             -968.96106      1.7045239      2.6216304      1.2459707      1.2459707     -5.6656711e-08 -5.3369706e-08 -8.0839322e-08  13.200028      13.200041      13.200041      2299.9873    
         7   0             -968.96106      1.7045236      2.6216301      1.2459704      1.2459704     -1.8814519e-08 -1.4721765e-08 -4.9467943e-08  13.200028      13.200041      13.200041      2299.9873    
         8   0             -968.96106      1.7045235      2.62163        1.2459703      1.2459702     -8.9492374e-09 -2.4951353e-09 -2.6622099e-08  13.200028      13.200041      13.200041      2299.9873    
         9   0             -968.96106      1.7045234      2.6216299      1.2459702      1.2459702     -1.8070693e-09 -2.329155e-09  -9.3758841e-09  13.200028      13.200041      13.200041      2299.9873    
        10   0             -968.96106      1.7045234      2.6216299      1.2459702      1.2459702     -7.0518184e-10 -4.0641702e-10 -2.6530945e-09  13.200028      13.200041      13.200041      2299.9873    
        11   0             -968.96106      1.7045234      2.6216299      1.2459702      1.2459702     -8.7541231e-10 -2.5294365e-10 -8.9845951e-10  13.200028      13.200041      13.200041      2299.9873    
        12   0             -968.96106      1.7045234      2.6216299      1.2459702      1.2459702     -3.2909507e-10 -3.1038219e-11 -2.0517654e-10  13.200028      13.200041      13.200041      2299.9873    
        13   0             -968.96106      1.7045234      2.6216299      1.2459702      1.2459702     -6.0076336e-11  2.7721146e-13 -4.5004438e-11  13.200028      13.200041      13.200041      2299.9873    
        14   0             -968.96106      1.7045234      2.6216299      1.2459702      1.2459702      5.3528563e-12 -1.3386985e-12  2.7366457e-11  13.200028      13.200041      13.200041      2299.9873    
        15   0             -968.96106      1.7045234      2.6216299      1.2459702      1.2459702      4.8500712e-12  8.6694622e-13  5.4716395e-12  13.200028      13.200041      13.200041      2299.9873    
        16   0             -968.96106      1.7045234      2.6216299      1.2459702      1.2459702     -5.6329248e-12 -4.9512368e-12 -3.5563738e-11  13.200028      13.200041      13.200041      2299.9873    
        17   0             -968.96106      1.7045234      2.6216299      1.2459702      1.2459702     -1.0398723e-11  5.2851496e-11 -4.2909788e-11  13.200028      13.200041      13.200041      2299.9873    
        18   0             -968.96106      1.7045234      2.6216299      1.2459702      1.2459702      1.0612192e-11 -1.1373244e-11 -2.2870977e-11  13.200028      13.200041      13.200041      2299.9873    
        19   0             -968.96106      1.7045234      2.6216299      1.2459702      1.2459702      5.1952871e-12 -1.0605337e-11 -9.8349406e-12  13.200028      13.200041      13.200041      2299.9873    
        20   0             -968.96106      1.7045234      2.6216299      1.2459702      1.2459702      2.1110617e-11 -2.8141348e-11  1.3360225e-11  13.200028      13.200041      13.200041      2299.9873    
        21   0             -968.96106      1.7045234      2.6216299      1.2459702      1.2459702      8.9885055e-13 -3.3147334e-11 -7.6136703e-12  13.200028      13.200041      13.200041      2299.9873    
Loop time of 0.005168 on 1 procs for 18 steps with 128 atoms

0.0% CPU use with 1 MPI tasks x 1 OpenMP threads

Minimization stats:
  Stopping criterion = force tolerance
  Energy initial, next-to-last, final = 
     -968.961056616208  -968.961056653139  -968.961056653133
  Force two-norm initial, final = 0.00074028766 9.9268081e-11
  Force max component initial, final = 9.3795419e-05 1.7562458e-11
  Final line search alpha, max atom move = 1 1.7562458e-11
  Iterations, force evaluations = 18 36

MPI task timing breakdown:
Section |  min time  |  avg time  |  max time  |%varavg| %total
---------------------------------------------------------------
Pair    | 0.004054   | 0.004054   | 0.004054   |   0.0 | 78.44
Neigh   | 0          | 0          | 0          |   0.0 |  0.00
Comm    | 6.3e-05    | 6.3e-05    | 6.3e-05    |   0.0 |  1.22
Output  | 0.000926   | 0.000926   | 0.000926   |   0.0 | 17.92
Modify  | 0          | 0          | 0          |   0.0 |  0.00
Other   |            | 0.000125   |            |       |  2.42

Nlocal:            128 ave         128 max         128 min
Histogram: 1 0 0 0 0 0 0 0 0 0
Nghost:           1113 ave        1113 max        1113 min
Histogram: 1 0 0 0 0 0 0 0 0 0
Neighs:           7168 ave        7168 max        7168 min
Histogram: 1 0 0 0 0 0 0 0 0 0

Total # of neighbors = 7168
Ave neighs/atom = 56
Neighbor list builds = 0
Dangerous builds = 0

# Obtain new stress tensor

variable tmp equal pxx
variable pxx1 equal ${tmp}
variable pxx1 equal 2.62162988246103
variable tmp equal pyy
variable pyy1 equal ${tmp}
variable pyy1 equal 1.24597015952856
variable tmp equal pzz
variable pzz1 equal ${tmp}
variable pzz1 equal 1.24597015949999
variable tmp equal pxy
variable pxy1 equal ${tmp}
variable pxy1 equal 8.98850549300901e-13
variable tmp equal pxz
variable pxz1 equal ${tmp}
variable pxz1 equal -3.31473336814697e-11
variable tmp equal pyz
variable pyz1 equal ${tmp}
variable pyz1 equal -7.61367026293579e-12

# Compute elastic constant from pressure tensor

variable C1neg equal ${d1}
variable C1neg equal 262.162988213638
variable C2neg equal ${d2}
variable C2neg equal 124.59701592524
variable C3neg equal ${d3}
variable C3neg equal 124.597015921412
variable C4neg equal ${d4}
variable C4neg equal -6.6016641652451e-09
variable C5neg equal ${d5}
variable C5neg equal -6.92587565619912e-09
variable C6neg equal ${d6}
variable C6neg equal -7.24993233802945e-10

# Reset box and simulation parameters

clear
OMP_NUM_THREADS environment is not set. Defaulting to 1 thread. (src/comm.cpp:98)
  using 1 OpenMP thread(s) per MPI task
Loaded 1 plugins from D:\Program Files (x86)\LAMMPS 64-bit 15Jun2023\plugins
box tilt large

The 'box' command has been removed and will be ignored

read_restart restart.equil
Reading restart file ...
  restart file = 15 Jun 2023, LAMMPS = 15 Jun 2023
  restoring atom style atomic from restart
  triclinic box = (-2.0648637e-05 -2.0648637e-05 -2.0648637e-05) to (13.200021 13.200021 13.200021) with tilt (0 0 0)
  1 by 1 by 1 MPI processor grid
  pair style eam/alloy stores no restart info
  128 atoms
  read_restart CPU = 0.000 seconds
include potential.mod
# NOTE: This script can be modified for different pair styles
# See in.elastic for more info.

# Choose potential
pair_style	eam/alloy
pair_coeff * * CuNb.eam.alloy Nb
Reading eam/alloy potential file CuNb.eam.alloy with DATE: 2025-04-10

# Setup neighbor style
neighbor 1.0 nsq
neigh_modify once no every 1 delay 0 check yes

# Setup minimization style
min_style	     cg
min_modify	     dmax ${dmax} line quadratic
min_modify	     dmax 0.01 line quadratic

# Setup output
thermo		1
thermo_style custom step temp pe press pxx pyy pzz pxy pxz pyz lx ly lz vol
thermo_modify norm no

# Positive deformation

variable delta equal ${up}*${len0}
variable delta equal 1e-06*${len0}
variable delta equal 1e-06*13.200041297274
variable deltaxy equal ${up}*xy
variable deltaxy equal 1e-06*xy
variable deltaxz equal ${up}*xz
variable deltaxz equal 1e-06*xz
variable deltayz equal ${up}*yz
variable deltayz equal 1e-06*yz
if "${dir} == 1" then    "change_box all x delta 0 ${delta} xy delta ${deltaxy} xz delta ${deltaxz} remap units box"
change_box all x delta 0 ${delta} xy delta ${deltaxy} xz delta ${deltaxz} remap units box
change_box all x delta 0 1.3200041297274e-05 xy delta ${deltaxy} xz delta ${deltaxz} remap units box
change_box all x delta 0 1.3200041297274e-05 xy delta 0 xz delta ${deltaxz} remap units box
change_box all x delta 0 1.3200041297274e-05 xy delta 0 xz delta 0 remap units box
Changing box ...
  triclinic box = (-2.0648637e-05 -2.0648637e-05 -2.0648637e-05) to (13.200034 13.200021 13.200021) with tilt (0 0 0)
  triclinic box = (-2.0648637e-05 -2.0648637e-05 -2.0648637e-05) to (13.200034 13.200021 13.200021) with tilt (0 0 0)
  triclinic box = (-2.0648637e-05 -2.0648637e-05 -2.0648637e-05) to (13.200034 13.200021 13.200021) with tilt (0 0 0)
if "${dir} == 2" then    "change_box all y delta 0 ${delta} yz delta ${deltayz} remap units box"
if "${dir} == 3" then    "change_box all z delta 0 ${delta} remap units box"
if "${dir} == 4" then    "change_box all yz delta ${delta} remap units box"
if "${dir} == 5" then    "change_box all xz delta ${delta} remap units box"
if "${dir} == 6" then    "change_box all xy delta ${delta} remap units box"

# Relax atoms positions

minimize ${etol} ${ftol} ${maxiter} ${maxeval}
minimize 0 ${ftol} ${maxiter} ${maxeval}
minimize 0 1e-10 ${maxiter} ${maxeval}
minimize 0 1e-10 100 ${maxeval}
minimize 0 1e-10 100 1000
Neighbor list info ...
  update: every = 1 steps, delay = 0 steps, check = yes
  max neighbors/atom: 2000, page size: 100000
  master list distance cutoff = 7.3911966
  ghost atom cutoff = 7.3911966
  1 neighbor lists, perpetual/occasional/extra = 1 0 0
  (1) pair eam/alloy, perpetual
      attributes: half, newton on
      pair build: half/nsq/newton
      stencil: none
      bin: none
Per MPI rank memory allocation (min/avg/max) = 4.458 | 4.458 | 4.458 Mbytes
   Step          Temp          PotEng         Press           Pxx            Pyy            Pzz            Pxy            Pxz            Pyz             Lx             Ly             Lz           Volume    
         3   0             -968.96106     -1.7044244     -2.6215241     -1.2458746     -1.2458744      1.0131267e-06  5.6203009e-06 -6.06417e-06    13.200054      13.200041      13.200041      2299.9919    
         4   0             -968.96106     -1.7045021     -2.6216033     -1.2459513     -1.2459516     -1.1537201e-06 -1.6091869e-06 -6.0514573e-07  13.200054      13.200041      13.200041      2299.9919    
         5   0             -968.96106     -1.7045123     -2.6216141     -1.2459614     -1.2459615     -3.1724363e-07  1.6420015e-08 -3.1879996e-07  13.200054      13.200041      13.200041      2299.9919    
         6   0             -968.96106     -1.7045139     -2.6216157     -1.2459629     -1.245963      -5.6647879e-08 -5.3390308e-08 -8.0828836e-08  13.200054      13.200041      13.200041      2299.9919    
         7   0             -968.96106     -1.7045142     -2.6216161     -1.2459632     -1.2459633     -1.8823395e-08 -1.4723555e-08 -4.9469726e-08  13.200054      13.200041      13.200041      2299.9919    
         8   0             -968.96106     -1.7045143     -2.6216162     -1.2459634     -1.2459634     -8.9493495e-09 -2.5178768e-09 -2.6617606e-08  13.200054      13.200041      13.200041      2299.9919    
         9   0             -968.96106     -1.7045144     -2.6216162     -1.2459634     -1.2459634     -1.8089234e-09 -2.3776566e-09 -9.4113522e-09  13.200054      13.200041      13.200041      2299.9919    
        10   0             -968.96106     -1.7045144     -2.6216162     -1.2459635     -1.2459635     -7.0499598e-10 -4.2173414e-10 -2.640696e-09   13.200054      13.200041      13.200041      2299.9919    
        11   0             -968.96106     -1.7045144     -2.6216162     -1.2459635     -1.2459635     -8.9187357e-10 -2.4687059e-10 -9.013675e-10   13.200054      13.200041      13.200041      2299.9919    
        12   0             -968.96106     -1.7045144     -2.6216162     -1.2459635     -1.2459635     -3.0807155e-10 -3.1590764e-11 -1.9306123e-10  13.200054      13.200041      13.200041      2299.9919    
        13   0             -968.96106     -1.7045144     -2.6216162     -1.2459635     -1.2459635     -5.4213465e-11  2.6994788e-12 -4.8790512e-11  13.200054      13.200041      13.200041      2299.9919    
        14   0             -968.96106     -1.7045144     -2.6216162     -1.2459635     -1.2459635     -1.0490998e-11 -2.7518515e-11  6.1504859e-12  13.200054      13.200041      13.200041      2299.9919    
        15   0             -968.96106     -1.7045144     -2.6216162     -1.2459635     -1.2459635     -2.0136141e-12 -3.3672704e-11 -1.3464677e-11  13.200054      13.200041      13.200041      2299.9919    
        16   0             -968.96106     -1.7045144     -2.6216162     -1.2459635     -1.2459635      6.2144591e-12 -3.1432287e-11 -4.9788333e-12  13.200054      13.200041      13.200041      2299.9919    
        17   0             -968.96106     -1.7045144     -2.6216162     -1.2459635     -1.2459635     -7.9231679e-12  1.4009833e-11  4.3240698e-12  13.200054      13.200041      13.200041      2299.9919    
        18   0             -968.96106     -1.7045144     -2.6216162     -1.2459635     -1.2459635     -1.0125653e-11  2.4528847e-11 -9.1953215e-12  13.200054      13.200041      13.200041      2299.9919    
        19   0             -968.96106     -1.7045144     -2.6216162     -1.2459635     -1.2459635      1.6508335e-11  7.0953221e-12 -1.1988901e-11  13.200054      13.200041      13.200041      2299.9919    
        20   0             -968.96106     -1.7045144     -2.6216162     -1.2459635     -1.2459635      4.9799638e-12  5.361193e-12   2.8647133e-11  13.200054      13.200041      13.200041      2299.9919    
        21   0             -968.96106     -1.7045144     -2.6216162     -1.2459635     -1.2459635     -4.2214517e-12  7.1495654e-12  1.533755e-11   13.200054      13.200041      13.200041      2299.9919    
Loop time of 0.004544 on 1 procs for 18 steps with 128 atoms

343.9% CPU use with 1 MPI tasks x 1 OpenMP threads

Minimization stats:
  Stopping criterion = force tolerance
  Energy initial, next-to-last, final = 
     -968.961056616208  -968.961056653143  -968.961056653127
  Force two-norm initial, final = 0.00074028151 9.9321971e-11
  Force max component initial, final = 9.3794472e-05 1.7662502e-11
  Final line search alpha, max atom move = 1 1.7662502e-11
  Iterations, force evaluations = 18 36

MPI task timing breakdown:
Section |  min time  |  avg time  |  max time  |%varavg| %total
---------------------------------------------------------------
Pair    | 0.003614   | 0.003614   | 0.003614   |   0.0 | 79.53
Neigh   | 0          | 0          | 0          |   0.0 |  0.00
Comm    | 7.8e-05    | 7.8e-05    | 7.8e-05    |   0.0 |  1.72
Output  | 0.000765   | 0.000765   | 0.000765   |   0.0 | 16.84
Modify  | 0          | 0          | 0          |   0.0 |  0.00
Other   |            | 8.7e-05    |            |       |  1.91

Nlocal:            128 ave         128 max         128 min
Histogram: 1 0 0 0 0 0 0 0 0 0
Nghost:           1113 ave        1113 max        1113 min
Histogram: 1 0 0 0 0 0 0 0 0 0
Neighs:           7168 ave        7168 max        7168 min
Histogram: 1 0 0 0 0 0 0 0 0 0

Total # of neighbors = 7168
Ave neighs/atom = 56
Neighbor list builds = 0
Dangerous builds = 0

# Obtain new stress tensor

variable tmp equal pe
variable e1 equal ${tmp}
variable e1 equal -968.961056653127
variable tmp equal press
variable p1 equal ${tmp}
variable p1 equal -1.70451440423425
variable tmp equal pxx
variable pxx1 equal ${tmp}
variable pxx1 equal -2.62161624607913
variable tmp equal pyy
variable pyy1 equal ${tmp}
variable pyy1 equal -1.24596348330806
variable tmp equal pzz
variable pzz1 equal ${tmp}
variable pzz1 equal -1.24596348331557
variable tmp equal pxy
variable pxy1 equal ${tmp}
variable pxy1 equal -4.22145169186719e-12
variable tmp equal pxz
variable pxz1 equal ${tmp}
variable pxz1 equal 7.14956541261801e-12
variable tmp equal pyz
variable pyz1 equal ${tmp}
variable pyz1 equal 1.53375497513016e-11

# Compute elastic constant from pressure tensor

variable C1pos equal ${d1}
variable C1pos equal 262.161624640378
variable C2pos equal ${d2}
variable C2pos equal 124.596348358422
variable C3pos equal ${d3}
variable C3pos equal 124.596348360144
variable C4pos equal ${d4}
variable C4pos equal 4.30654216382136e-09
variable C5pos equal ${d5}
variable C5pos equal 2.89618574679035e-09
variable C6pos equal ${d6}
variable C6pos equal 1.23702345791975e-09

# Combine positive and negative

variable C1${dir} equal 0.5*(${C1neg}+${C1pos})
variable C11 equal 0.5*(${C1neg}+${C1pos})
variable C11 equal 0.5*(262.162988213638+${C1pos})
variable C11 equal 0.5*(262.162988213638+262.161624640378)
variable C2${dir} equal 0.5*(${C2neg}+${C2pos})
variable C21 equal 0.5*(${C2neg}+${C2pos})
variable C21 equal 0.5*(124.59701592524+${C2pos})
variable C21 equal 0.5*(124.59701592524+124.596348358422)
variable C3${dir} equal 0.5*(${C3neg}+${C3pos})
variable C31 equal 0.5*(${C3neg}+${C3pos})
variable C31 equal 0.5*(124.597015921412+${C3pos})
variable C31 equal 0.5*(124.597015921412+124.596348360144)
variable C4${dir} equal 0.5*(${C4neg}+${C4pos})
variable C41 equal 0.5*(${C4neg}+${C4pos})
variable C41 equal 0.5*(-6.6016641652451e-09+${C4pos})
variable C41 equal 0.5*(-6.6016641652451e-09+4.30654216382136e-09)
variable C5${dir} equal 0.5*(${C5neg}+${C5pos})
variable C51 equal 0.5*(${C5neg}+${C5pos})
variable C51 equal 0.5*(-6.92587565619912e-09+${C5pos})
variable C51 equal 0.5*(-6.92587565619912e-09+2.89618574679035e-09)
variable C6${dir} equal 0.5*(${C6neg}+${C6pos})
variable C61 equal 0.5*(${C6neg}+${C6pos})
variable C61 equal 0.5*(-7.24993233802945e-10+${C6pos})
variable C61 equal 0.5*(-7.24993233802945e-10+1.23702345791975e-09)

# Delete dir to make sure it is not reused

variable dir delete

# uyy Perturbation

variable dir equal 2
include displace.mod
# NOTE: This script should not need to be
# modified. See in.elastic for more info.
#
# Find which reference length to use

if "${dir} == 1" then    "variable len0 equal ${lx0}"
if "${dir} == 2" then    "variable len0 equal ${ly0}"
variable len0 equal ${ly0}
variable len0 equal 13.200041297274
if "${dir} == 3" then    "variable len0 equal ${lz0}"
if "${dir} == 4" then    "variable len0 equal ${lz0}"
if "${dir} == 5" then    "variable len0 equal ${lz0}"
if "${dir} == 6" then    "variable len0 equal ${ly0}"

# Reset box and simulation parameters

clear
OMP_NUM_THREADS environment is not set. Defaulting to 1 thread. (src/comm.cpp:98)
  using 1 OpenMP thread(s) per MPI task
Loaded 1 plugins from D:\Program Files (x86)\LAMMPS 64-bit 15Jun2023\plugins
box tilt large

The 'box' command has been removed and will be ignored

read_restart restart.equil
Reading restart file ...
  restart file = 15 Jun 2023, LAMMPS = 15 Jun 2023
  restoring atom style atomic from restart
  triclinic box = (-2.0648637e-05 -2.0648637e-05 -2.0648637e-05) to (13.200021 13.200021 13.200021) with tilt (0 0 0)
  1 by 1 by 1 MPI processor grid
  pair style eam/alloy stores no restart info
  128 atoms
  read_restart CPU = 0.001 seconds
include potential.mod
# NOTE: This script can be modified for different pair styles
# See in.elastic for more info.

# Choose potential
pair_style	eam/alloy
pair_coeff * * CuNb.eam.alloy Nb
Reading eam/alloy potential file CuNb.eam.alloy with DATE: 2025-04-10

# Setup neighbor style
neighbor 1.0 nsq
neigh_modify once no every 1 delay 0 check yes

# Setup minimization style
min_style	     cg
min_modify	     dmax ${dmax} line quadratic
min_modify	     dmax 0.01 line quadratic

# Setup output
thermo		1
thermo_style custom step temp pe press pxx pyy pzz pxy pxz pyz lx ly lz vol
thermo_modify norm no

# Negative deformation

variable delta equal -${up}*${len0}
variable delta equal -1e-06*${len0}
variable delta equal -1e-06*13.200041297274
variable deltaxy equal -${up}*xy
variable deltaxy equal -1e-06*xy
variable deltaxz equal -${up}*xz
variable deltaxz equal -1e-06*xz
variable deltayz equal -${up}*yz
variable deltayz equal -1e-06*yz
if "${dir} == 1" then    "change_box all x delta 0 ${delta} xy delta ${deltaxy} xz delta ${deltaxz} remap units box"
if "${dir} == 2" then    "change_box all y delta 0 ${delta} yz delta ${deltayz} remap units box"
change_box all y delta 0 ${delta} yz delta ${deltayz} remap units box
change_box all y delta 0 -1.3200041297274e-05 yz delta ${deltayz} remap units box
change_box all y delta 0 -1.3200041297274e-05 yz delta -0 remap units box
Changing box ...
  triclinic box = (-2.0648637e-05 -2.0648637e-05 -2.0648637e-05) to (13.200021 13.200007 13.200021) with tilt (0 0 0)
  triclinic box = (-2.0648637e-05 -2.0648637e-05 -2.0648637e-05) to (13.200021 13.200007 13.200021) with tilt (0 0 0)
if "${dir} == 3" then    "change_box all z delta 0 ${delta} remap units box"
if "${dir} == 4" then    "change_box all yz delta ${delta} remap units box"
if "${dir} == 5" then    "change_box all xz delta ${delta} remap units box"
if "${dir} == 6" then    "change_box all xy delta ${delta} remap units box"

# Relax atoms positions

minimize ${etol} ${ftol} ${maxiter} ${maxeval}
minimize 0 ${ftol} ${maxiter} ${maxeval}
minimize 0 1e-10 ${maxiter} ${maxeval}
minimize 0 1e-10 100 ${maxeval}
minimize 0 1e-10 100 1000
Neighbor list info ...
  update: every = 1 steps, delay = 0 steps, check = yes
  max neighbors/atom: 2000, page size: 100000
  master list distance cutoff = 7.3911966
  ghost atom cutoff = 7.3911966
  1 neighbor lists, perpetual/occasional/extra = 1 0 0
  (1) pair eam/alloy, perpetual
      attributes: half, newton on
      pair build: half/nsq/newton
      stencil: none
      bin: none
Per MPI rank memory allocation (min/avg/max) = 4.458 | 4.458 | 4.458 Mbytes
   Step          Temp          PotEng         Press           Pxx            Pyy            Pzz            Pxy            Pxz            Pyz             Lx             Ly             Lz           Volume    
         3   0             -968.96106      1.7046134      1.2460623      2.6217187      1.2460593      1.0131161e-06  5.6203215e-06 -6.0641432e-06  13.200041      13.200028      13.200041      2299.9873    
         4   0             -968.96106      1.7045357      1.2459831      2.6216421      1.2459821     -1.1537076e-06 -1.6091793e-06 -6.0511471e-07  13.200041      13.200028      13.200041      2299.9873    
         5   0             -968.96106      1.7045255      1.2459723      2.6216319      1.2459722     -3.1724681e-07  1.6422265e-08 -3.187944e-07   13.200041      13.200028      13.200041      2299.9873    
         6   0             -968.96106      1.7045239      1.2459707      2.6216305      1.2459707     -5.6641857e-08 -5.3369556e-08 -8.081364e-08   13.200041      13.200028      13.200041      2299.9873    
         7   0             -968.96106      1.7045236      1.2459703      2.6216301      1.2459704     -1.8822879e-08 -1.4724509e-08 -4.9463904e-08  13.200041      13.200028      13.200041      2299.9873    
         8   0             -968.96106      1.7045235      1.2459702      2.62163        1.2459702     -8.9347527e-09 -2.527592e-09  -2.6591708e-08  13.200041      13.200028      13.200041      2299.9873    
         9   0             -968.96106      1.7045234      1.2459702      2.6216299      1.2459702     -1.7925756e-09 -2.4174557e-09 -9.4436981e-09  13.200041      13.200028      13.200041      2299.9873    
        10   0             -968.96106      1.7045234      1.2459702      2.6216299      1.2459702     -7.094537e-10  -4.2422054e-10 -2.6941722e-09  13.200041      13.200028      13.200041      2299.9873    
        11   0             -968.96106      1.7045234      1.2459702      2.6216299      1.2459702     -8.8558376e-10 -2.6199504e-10 -9.0640864e-10  13.200041      13.200028      13.200041      2299.9873    
        12   0             -968.96106      1.7045234      1.2459702      2.6216299      1.2459702     -2.9782741e-10 -1.5164261e-11 -1.7896921e-10  13.200041      13.200028      13.200041      2299.9873    
        13   0             -968.96106      1.7045234      1.2459702      2.6216299      1.2459702     -4.323856e-11  -3.2853289e-11 -4.2087226e-11  13.200041      13.200028      13.200041      2299.9873    
        14   0             -968.96106      1.7045234      1.2459702      2.6216299      1.2459702     -6.0465116e-12  4.1360446e-11 -1.2360078e-11  13.200041      13.200028      13.200041      2299.9873    
        15   0             -968.96106      1.7045234      1.2459702      2.6216299      1.2459702      9.5200754e-12 -3.8792924e-11 -1.5022658e-11  13.200041      13.200028      13.200041      2299.9873    
        16   0             -968.96106      1.7045234      1.2459702      2.6216299      1.2459702      1.0667271e-11 -5.7004667e-12 -3.9330213e-12  13.200041      13.200028      13.200041      2299.9873    
        17   0             -968.96106      1.7045234      1.2459702      2.6216299      1.2459702      1.022429e-12  -7.9356184e-12 -1.6920618e-12  13.200041      13.200028      13.200041      2299.9873    
        18   0             -968.96106      1.7045234      1.2459702      2.6216299      1.2459702     -1.7713225e-12  2.7661868e-11  1.7022281e-11  13.200041      13.200028      13.200041      2299.9873    
        19   0             -968.96106      1.7045234      1.2459702      2.6216299      1.2459702      1.2663355e-11 -2.0010336e-11  1.6619512e-11  13.200041      13.200028      13.200041      2299.9873    
        20   0             -968.96106      1.7045234      1.2459702      2.6216299      1.2459702      1.7425224e-12 -2.6439617e-11 -6.9627154e-12  13.200041      13.200028      13.200041      2299.9873    
        21   0             -968.96106      1.7045234      1.2459702      2.6216299      1.2459702      1.228543e-12  -1.4141803e-11  1.8094471e-12  13.200041      13.200028      13.200041      2299.9873    
Loop time of 0.006492 on 1 procs for 18 steps with 128 atoms

0.0% CPU use with 1 MPI tasks x 1 OpenMP threads

Minimization stats:
  Stopping criterion = force tolerance
  Energy initial, next-to-last, final = 
     -968.961056616208  -968.961056653138  -968.961056653135
  Force two-norm initial, final = 0.0007402875 9.9256296e-11
  Force max component initial, final = 9.3795214e-05 1.7765074e-11
  Final line search alpha, max atom move = 1 1.7765074e-11
  Iterations, force evaluations = 18 36

MPI task timing breakdown:
Section |  min time  |  avg time  |  max time  |%varavg| %total
---------------------------------------------------------------
Pair    | 0.004919   | 0.004919   | 0.004919   |   0.0 | 75.77
Neigh   | 0          | 0          | 0          |   0.0 |  0.00
Comm    | 8.8e-05    | 8.8e-05    | 8.8e-05    |   0.0 |  1.36
Output  | 0.001355   | 0.001355   | 0.001355   |   0.0 | 20.87
Modify  | 0          | 0          | 0          |   0.0 |  0.00
Other   |            | 0.00013    |            |       |  2.00

Nlocal:            128 ave         128 max         128 min
Histogram: 1 0 0 0 0 0 0 0 0 0
Nghost:           1113 ave        1113 max        1113 min
Histogram: 1 0 0 0 0 0 0 0 0 0
Neighs:           7168 ave        7168 max        7168 min
Histogram: 1 0 0 0 0 0 0 0 0 0

Total # of neighbors = 7168
Ave neighs/atom = 56
Neighbor list builds = 0
Dangerous builds = 0

# Obtain new stress tensor

variable tmp equal pxx
variable pxx1 equal ${tmp}
variable pxx1 equal 1.24597015945754
variable tmp equal pyy
variable pyy1 equal ${tmp}
variable pyy1 equal 2.62162988242288
variable tmp equal pzz
variable pzz1 equal ${tmp}
variable pzz1 equal 1.24597015949183
variable tmp equal pxy
variable pxy1 equal ${tmp}
variable pxy1 equal 1.22854298242157e-12
variable tmp equal pxz
variable pxz1 equal ${tmp}
variable pxz1 equal -1.41418032397637e-11
variable tmp equal pyz
variable pyz1 equal ${tmp}
variable pyz1 equal 1.80944712687546e-12

# Compute elastic constant from pressure tensor

variable C1neg equal ${d1}
variable C1neg equal 124.597015913289
variable C2neg equal ${d2}
variable C2neg equal 262.162988214672
variable C3neg equal ${d3}
variable C3neg equal 124.597015920596
variable C4neg equal ${d4}
variable C4neg equal -5.65935242626397e-09
variable C5neg equal ${d5}
variable C5neg equal -5.02532261202852e-09
variable C6neg equal ${d6}
variable C6neg equal -6.92023990490878e-10

# Reset box and simulation parameters

clear
OMP_NUM_THREADS environment is not set. Defaulting to 1 thread. (src/comm.cpp:98)
  using 1 OpenMP thread(s) per MPI task
Loaded 1 plugins from D:\Program Files (x86)\LAMMPS 64-bit 15Jun2023\plugins
box tilt large

The 'box' command has been removed and will be ignored

read_restart restart.equil
Reading restart file ...
  restart file = 15 Jun 2023, LAMMPS = 15 Jun 2023
  restoring atom style atomic from restart
  triclinic box = (-2.0648637e-05 -2.0648637e-05 -2.0648637e-05) to (13.200021 13.200021 13.200021) with tilt (0 0 0)
  1 by 1 by 1 MPI processor grid
  pair style eam/alloy stores no restart info
  128 atoms
  read_restart CPU = 0.001 seconds
include potential.mod
# NOTE: This script can be modified for different pair styles
# See in.elastic for more info.

# Choose potential
pair_style	eam/alloy
pair_coeff * * CuNb.eam.alloy Nb
Reading eam/alloy potential file CuNb.eam.alloy with DATE: 2025-04-10

# Setup neighbor style
neighbor 1.0 nsq
neigh_modify once no every 1 delay 0 check yes

# Setup minimization style
min_style	     cg
min_modify	     dmax ${dmax} line quadratic
min_modify	     dmax 0.01 line quadratic

# Setup output
thermo		1
thermo_style custom step temp pe press pxx pyy pzz pxy pxz pyz lx ly lz vol
thermo_modify norm no

# Positive deformation

variable delta equal ${up}*${len0}
variable delta equal 1e-06*${len0}
variable delta equal 1e-06*13.200041297274
variable deltaxy equal ${up}*xy
variable deltaxy equal 1e-06*xy
variable deltaxz equal ${up}*xz
variable deltaxz equal 1e-06*xz
variable deltayz equal ${up}*yz
variable deltayz equal 1e-06*yz
if "${dir} == 1" then    "change_box all x delta 0 ${delta} xy delta ${deltaxy} xz delta ${deltaxz} remap units box"
if "${dir} == 2" then    "change_box all y delta 0 ${delta} yz delta ${deltayz} remap units box"
change_box all y delta 0 ${delta} yz delta ${deltayz} remap units box
change_box all y delta 0 1.3200041297274e-05 yz delta ${deltayz} remap units box
change_box all y delta 0 1.3200041297274e-05 yz delta 0 remap units box
Changing box ...
  triclinic box = (-2.0648637e-05 -2.0648637e-05 -2.0648637e-05) to (13.200021 13.200034 13.200021) with tilt (0 0 0)
  triclinic box = (-2.0648637e-05 -2.0648637e-05 -2.0648637e-05) to (13.200021 13.200034 13.200021) with tilt (0 0 0)
if "${dir} == 3" then    "change_box all z delta 0 ${delta} remap units box"
if "${dir} == 4" then    "change_box all yz delta ${delta} remap units box"
if "${dir} == 5" then    "change_box all xz delta ${delta} remap units box"
if "${dir} == 6" then    "change_box all xy delta ${delta} remap units box"

# Relax atoms positions

minimize ${etol} ${ftol} ${maxiter} ${maxeval}
minimize 0 ${ftol} ${maxiter} ${maxeval}
minimize 0 1e-10 ${maxiter} ${maxeval}
minimize 0 1e-10 100 ${maxeval}
minimize 0 1e-10 100 1000
Neighbor list info ...
  update: every = 1 steps, delay = 0 steps, check = yes
  max neighbors/atom: 2000, page size: 100000
  master list distance cutoff = 7.3911966
  ghost atom cutoff = 7.3911966
  1 neighbor lists, perpetual/occasional/extra = 1 0 0
  (1) pair eam/alloy, perpetual
      attributes: half, newton on
      pair build: half/nsq/newton
      stencil: none
      bin: none
Per MPI rank memory allocation (min/avg/max) = 4.458 | 4.458 | 4.458 Mbytes
   Step          Temp          PotEng         Press           Pxx            Pyy            Pzz            Pxy            Pxz            Pyz             Lx             Ly             Lz           Volume    
         3   0             -968.96106     -1.7044244     -1.2458713     -2.6215274     -1.2458744      1.0131165e-06  5.6202666e-06 -6.0641499e-06  13.200041      13.200054      13.200041      2299.9919    
         4   0             -968.96106     -1.7045021     -1.2459506     -2.621604      -1.2459516     -1.1537142e-06 -1.6091888e-06 -6.0516441e-07  13.200041      13.200054      13.200041      2299.9919    
         5   0             -968.96106     -1.7045123     -1.2459613     -2.6216142     -1.2459615     -3.1724377e-07  1.6434993e-08 -3.1879061e-07  13.200041      13.200054      13.200041      2299.9919    
         6   0             -968.96106     -1.7045139     -1.245963      -2.6216157     -1.245963      -5.6645592e-08 -5.3346616e-08 -8.0876224e-08  13.200041      13.200054      13.200041      2299.9919    
         7   0             -968.96106     -1.7045142     -1.2459633     -2.621616      -1.2459633     -1.884038e-08  -1.4692019e-08 -4.9463348e-08  13.200041      13.200054      13.200041      2299.9919    
         8   0             -968.96106     -1.7045143     -1.2459634     -2.6216161     -1.2459634     -8.9366748e-09 -2.5271215e-09 -2.6627816e-08  13.200041      13.200054      13.200041      2299.9919    
         9   0             -968.96106     -1.7045144     -1.2459635     -2.6216162     -1.2459634     -1.8121271e-09 -2.3869291e-09 -9.4378494e-09  13.200041      13.200054      13.200041      2299.9919    
        10   0             -968.96106     -1.7045144     -1.2459635     -2.6216162     -1.2459635     -6.8589711e-10 -3.9795717e-10 -2.6551974e-09  13.200041      13.200054      13.200041      2299.9919    
        11   0             -968.96106     -1.7045144     -1.2459635     -2.6216162     -1.2459635     -8.8420102e-10 -2.7761265e-10 -9.1950897e-10  13.200041      13.200054      13.200041      2299.9919    
        12   0             -968.96106     -1.7045144     -1.2459635     -2.6216162     -1.2459635     -3.2682544e-10 -9.5628174e-12 -1.8291984e-10  13.200041      13.200054      13.200041      2299.9919    
        13   0             -968.96106     -1.7045144     -1.2459635     -2.6216162     -1.2459635     -3.8380422e-11  2.7797112e-12 -5.747351e-11   13.200041      13.200054      13.200041      2299.9919    
        14   0             -968.96106     -1.7045144     -1.2459635     -2.6216162     -1.2459635     -9.7907018e-12 -4.9297629e-12  2.9481721e-11  13.200041      13.200054      13.200041      2299.9919    
        15   0             -968.96106     -1.7045144     -1.2459635     -2.6216162     -1.2459635      7.6601865e-13 -8.2062733e-12  2.7956886e-11  13.200041      13.200054      13.200041      2299.9919    
        16   0             -968.96106     -1.7045144     -1.2459635     -2.6216162     -1.2459635      1.5282543e-11 -1.7116756e-12  6.1318857e-11  13.200041      13.200054      13.200041      2299.9919    
        17   0             -968.96106     -1.7045144     -1.2459635     -2.6216162     -1.2459635     -9.0200749e-12  3.2692604e-11 -1.5944244e-11  13.200041      13.200054      13.200041      2299.9919    
        18   0             -968.96106     -1.7045144     -1.2459635     -2.6216162     -1.2459635      7.4558531e-12 -2.4858262e-12  2.8501589e-11  13.200041      13.200054      13.200041      2299.9919    
        19   0             -968.96106     -1.7045144     -1.2459635     -2.6216162     -1.2459635      4.427973e-12  -2.6010522e-11  1.450968e-11   13.200041      13.200054      13.200041      2299.9919    
        20   0             -968.96106     -1.7045144     -1.2459635     -2.6216162     -1.2459635     -1.1571417e-11 -3.4418561e-11 -3.9235818e-11  13.200041      13.200054      13.200041      2299.9919    
        21   0             -968.96106     -1.7045144     -1.2459635     -2.6216162     -1.2459635      1.306192e-11   1.2009115e-11 -1.247497e-11   13.200041      13.200054      13.200041      2299.9919    
Loop time of 0.005115 on 1 procs for 18 steps with 128 atoms

0.0% CPU use with 1 MPI tasks x 1 OpenMP threads

Minimization stats:
  Stopping criterion = force tolerance
  Energy initial, next-to-last, final = 
      -968.96105661621  -968.961056653143  -968.961056653128
  Force two-norm initial, final = 0.00074028167 9.9270202e-11
  Force max component initial, final = 9.3794677e-05 1.7460852e-11
  Final line search alpha, max atom move = 1 1.7460852e-11
  Iterations, force evaluations = 18 36

MPI task timing breakdown:
Section |  min time  |  avg time  |  max time  |%varavg| %total
---------------------------------------------------------------
Pair    | 0.003981   | 0.003981   | 0.003981   |   0.0 | 77.83
Neigh   | 0          | 0          | 0          |   0.0 |  0.00
Comm    | 8e-05      | 8e-05      | 8e-05      |   0.0 |  1.56
Output  | 0.000954   | 0.000954   | 0.000954   |   0.0 | 18.65
Modify  | 0          | 0          | 0          |   0.0 |  0.00
Other   |            | 0.0001     |            |       |  1.96

Nlocal:            128 ave         128 max         128 min
Histogram: 1 0 0 0 0 0 0 0 0 0
Nghost:           1113 ave        1113 max        1113 min
Histogram: 1 0 0 0 0 0 0 0 0 0
Neighs:           7168 ave        7168 max        7168 min
Histogram: 1 0 0 0 0 0 0 0 0 0

Total # of neighbors = 7168
Ave neighs/atom = 56
Neighbor list builds = 0
Dangerous builds = 0

# Obtain new stress tensor

variable tmp equal pe
variable e1 equal ${tmp}
variable e1 equal -968.961056653128
variable tmp equal press
variable p1 equal ${tmp}
variable p1 equal -1.70451440424369
variable tmp equal pxx
variable pxx1 equal ${tmp}
variable pxx1 equal -1.24596348332113
variable tmp equal pyy
variable pyy1 equal ${tmp}
variable pyy1 equal -2.6216162460879
variable tmp equal pzz
variable pzz1 equal ${tmp}
variable pzz1 equal -1.24596348332203
variable tmp equal pxy
variable pxy1 equal ${tmp}
variable pxy1 equal 1.30619196041494e-11
variable tmp equal pxz
variable pxz1 equal ${tmp}
variable pxz1 equal 1.20091148166993e-11
variable tmp equal pyz
variable pyz1 equal ${tmp}
variable pyz1 equal -1.24749704412144e-11

# Compute elastic constant from pressure tensor

variable C1pos equal ${d1}
variable C1pos equal 124.596348364578
variable C2pos equal ${d2}
variable C2pos equal 262.161624636406
variable C3pos equal ${d3}
variable C3pos equal 124.59634836079
variable C4pos equal ${d4}
variable C4pos equal 7.08779418307296e-09
variable C5pos equal ${d5}
variable C5pos equal 2.41023080638222e-09
variable C6pos equal ${d6}
variable C6pos equal -4.91313671681905e-10

# Combine positive and negative

variable C1${dir} equal 0.5*(${C1neg}+${C1pos})
variable C12 equal 0.5*(${C1neg}+${C1pos})
variable C12 equal 0.5*(124.597015913289+${C1pos})
variable C12 equal 0.5*(124.597015913289+124.596348364578)
variable C2${dir} equal 0.5*(${C2neg}+${C2pos})
variable C22 equal 0.5*(${C2neg}+${C2pos})
variable C22 equal 0.5*(262.162988214672+${C2pos})
variable C22 equal 0.5*(262.162988214672+262.161624636406)
variable C3${dir} equal 0.5*(${C3neg}+${C3pos})
variable C32 equal 0.5*(${C3neg}+${C3pos})
variable C32 equal 0.5*(124.597015920596+${C3pos})
variable C32 equal 0.5*(124.597015920596+124.59634836079)
variable C4${dir} equal 0.5*(${C4neg}+${C4pos})
variable C42 equal 0.5*(${C4neg}+${C4pos})
variable C42 equal 0.5*(-5.65935242626397e-09+${C4pos})
variable C42 equal 0.5*(-5.65935242626397e-09+7.08779418307296e-09)
variable C5${dir} equal 0.5*(${C5neg}+${C5pos})
variable C52 equal 0.5*(${C5neg}+${C5pos})
variable C52 equal 0.5*(-5.02532261202852e-09+${C5pos})
variable C52 equal 0.5*(-5.02532261202852e-09+2.41023080638222e-09)
variable C6${dir} equal 0.5*(${C6neg}+${C6pos})
variable C62 equal 0.5*(${C6neg}+${C6pos})
variable C62 equal 0.5*(-6.92023990490878e-10+${C6pos})
variable C62 equal 0.5*(-6.92023990490878e-10+-4.91313671681905e-10)

# Delete dir to make sure it is not reused

variable dir delete

# uzz Perturbation

variable dir equal 3
include displace.mod
# NOTE: This script should not need to be
# modified. See in.elastic for more info.
#
# Find which reference length to use

if "${dir} == 1" then    "variable len0 equal ${lx0}"
if "${dir} == 2" then    "variable len0 equal ${ly0}"
if "${dir} == 3" then    "variable len0 equal ${lz0}"
variable len0 equal ${lz0}
variable len0 equal 13.200041297274
if "${dir} == 4" then    "variable len0 equal ${lz0}"
if "${dir} == 5" then    "variable len0 equal ${lz0}"
if "${dir} == 6" then    "variable len0 equal ${ly0}"

# Reset box and simulation parameters

clear
OMP_NUM_THREADS environment is not set. Defaulting to 1 thread. (src/comm.cpp:98)
  using 1 OpenMP thread(s) per MPI task
Loaded 1 plugins from D:\Program Files (x86)\LAMMPS 64-bit 15Jun2023\plugins
box tilt large

The 'box' command has been removed and will be ignored

read_restart restart.equil
Reading restart file ...
  restart file = 15 Jun 2023, LAMMPS = 15 Jun 2023
  restoring atom style atomic from restart
  triclinic box = (-2.0648637e-05 -2.0648637e-05 -2.0648637e-05) to (13.200021 13.200021 13.200021) with tilt (0 0 0)
  1 by 1 by 1 MPI processor grid
  pair style eam/alloy stores no restart info
  128 atoms
  read_restart CPU = 0.000 seconds
include potential.mod
# NOTE: This script can be modified for different pair styles
# See in.elastic for more info.

# Choose potential
pair_style	eam/alloy
pair_coeff * * CuNb.eam.alloy Nb
Reading eam/alloy potential file CuNb.eam.alloy with DATE: 2025-04-10

# Setup neighbor style
neighbor 1.0 nsq
neigh_modify once no every 1 delay 0 check yes

# Setup minimization style
min_style	     cg
min_modify	     dmax ${dmax} line quadratic
min_modify	     dmax 0.01 line quadratic

# Setup output
thermo		1
thermo_style custom step temp pe press pxx pyy pzz pxy pxz pyz lx ly lz vol
thermo_modify norm no

# Negative deformation

variable delta equal -${up}*${len0}
variable delta equal -1e-06*${len0}
variable delta equal -1e-06*13.200041297274
variable deltaxy equal -${up}*xy
variable deltaxy equal -1e-06*xy
variable deltaxz equal -${up}*xz
variable deltaxz equal -1e-06*xz
variable deltayz equal -${up}*yz
variable deltayz equal -1e-06*yz
if "${dir} == 1" then    "change_box all x delta 0 ${delta} xy delta ${deltaxy} xz delta ${deltaxz} remap units box"
if "${dir} == 2" then    "change_box all y delta 0 ${delta} yz delta ${deltayz} remap units box"
if "${dir} == 3" then    "change_box all z delta 0 ${delta} remap units box"
change_box all z delta 0 ${delta} remap units box
change_box all z delta 0 -1.3200041297274e-05 remap units box
Changing box ...
  triclinic box = (-2.0648637e-05 -2.0648637e-05 -2.0648637e-05) to (13.200021 13.200021 13.200007) with tilt (0 0 0)
if "${dir} == 4" then    "change_box all yz delta ${delta} remap units box"
if "${dir} == 5" then    "change_box all xz delta ${delta} remap units box"
if "${dir} == 6" then    "change_box all xy delta ${delta} remap units box"

# Relax atoms positions

minimize ${etol} ${ftol} ${maxiter} ${maxeval}
minimize 0 ${ftol} ${maxiter} ${maxeval}
minimize 0 1e-10 ${maxiter} ${maxeval}
minimize 0 1e-10 100 ${maxeval}
minimize 0 1e-10 100 1000
Neighbor list info ...
  update: every = 1 steps, delay = 0 steps, check = yes
  max neighbors/atom: 2000, page size: 100000
  master list distance cutoff = 7.3911966
  ghost atom cutoff = 7.3911966
  1 neighbor lists, perpetual/occasional/extra = 1 0 0
  (1) pair eam/alloy, perpetual
      attributes: half, newton on
      pair build: half/nsq/newton
      stencil: none
      bin: none
Per MPI rank memory allocation (min/avg/max) = 4.458 | 4.458 | 4.458 Mbytes
   Step          Temp          PotEng         Press           Pxx            Pyy            Pzz            Pxy            Pxz            Pyz             Lx             Ly             Lz           Volume    
         3   0             -968.96106      1.7046134      1.2460623      1.246059       2.621719       1.013129e-06   5.6202698e-06 -6.0641531e-06  13.200041      13.200041      13.200028      2299.9873    
         4   0             -968.96106      1.7045357      1.2459831      1.2459824      2.6216418     -1.1537323e-06 -1.609179e-06  -6.0516428e-07  13.200041      13.200041      13.200028      2299.9873    
         5   0             -968.96106      1.7045255      1.2459723      1.2459722      2.6216319     -3.1724917e-07  1.6433162e-08 -3.1879204e-07  13.200041      13.200041      13.200028      2299.9873    
         6   0             -968.96106      1.7045239      1.2459707      1.2459707      2.6216304     -5.6634304e-08 -5.3354956e-08 -8.0834056e-08  13.200041      13.200041      13.200028      2299.9873    
         7   0             -968.96106      1.7045236      1.2459703      1.2459704      2.6216301     -1.8811421e-08 -1.4756512e-08 -4.9457817e-08  13.200041      13.200041      13.200028      2299.9873    
         8   0             -968.96106      1.7045235      1.2459702      1.2459703      2.62163       -8.9456034e-09 -2.5102846e-09 -2.6619367e-08  13.200041      13.200041      13.200028      2299.9873    
         9   0             -968.96106      1.7045234      1.2459702      1.2459702      2.6216299     -1.7964428e-09 -2.3590984e-09 -9.4116792e-09  13.200041      13.200041      13.200028      2299.9873    
        10   0             -968.96106      1.7045234      1.2459702      1.2459702      2.6216299     -7.0144632e-10 -4.1307403e-10 -2.6522686e-09  13.200041      13.200041      13.200028      2299.9873    
        11   0             -968.96106      1.7045234      1.2459702      1.2459702      2.6216299     -8.8945214e-10 -2.8010882e-10 -8.9922691e-10  13.200041      13.200041      13.200028      2299.9873    
        12   0             -968.96106      1.7045234      1.2459702      1.2459702      2.6216299     -3.1662599e-10  7.378231e-13  -1.7997938e-10  13.200041      13.200041      13.200028      2299.9873    
        13   0             -968.96106      1.7045234      1.2459702      1.2459702      2.6216299     -4.9287672e-11 -8.4356438e-12 -3.2878134e-11  13.200041      13.200041      13.200028      2299.9873    
        14   0             -968.96106      1.7045234      1.2459702      1.2459702      2.6216299      8.2969909e-12 -2.2060496e-11  3.8083331e-11  13.200041      13.200041      13.200028      2299.9873    
        15   0             -968.96106      1.7045234      1.2459702      1.2459702      2.6216299      1.4705535e-12  7.3862391e-12  1.8710602e-11  13.200041      13.200041      13.200028      2299.9873    
        16   0             -968.96106      1.7045234      1.2459702      1.2459702      2.6216299     -7.059242e-12  -4.8665789e-12 -2.5935469e-11  13.200041      13.200041      13.200028      2299.9873    
        17   0             -968.96106      1.7045234      1.2459702      1.2459702      2.6216299      2.4015579e-11 -2.4002758e-12 -1.5708052e-11  13.200041      13.200041      13.200028      2299.9873    
        18   0             -968.96106      1.7045234      1.2459702      1.2459702      2.6216299      2.9724095e-12  2.9855232e-11  7.3497e-12     13.200041      13.200041      13.200028      2299.9873    
        19   0             -968.96106      1.7045234      1.2459702      1.2459702      2.6216299      1.2060056e-11  2.1224908e-11 -2.6942434e-11  13.200041      13.200041      13.200028      2299.9873    
        20   0             -968.96106      1.7045234      1.2459702      1.2459702      2.6216299     -8.8269765e-12  1.4555787e-11  8.7047622e-12  13.200041      13.200041      13.200028      2299.9873    
        21   0             -968.96106      1.7045234      1.2459702      1.2459702      2.6216299      1.2236624e-11 -1.5985687e-11  2.4787294e-11  13.200041      13.200041      13.200028      2299.9873    
Loop time of 0.004578 on 1 procs for 18 steps with 128 atoms

341.3% CPU use with 1 MPI tasks x 1 OpenMP threads

Minimization stats:
  Stopping criterion = force tolerance
  Energy initial, next-to-last, final = 
     -968.961056616209  -968.961056653139  -968.961056653135
  Force two-norm initial, final = 0.00074028753 9.9357204e-11
  Force max component initial, final = 9.3795208e-05 1.7515327e-11
  Final line search alpha, max atom move = 1 1.7515327e-11
  Iterations, force evaluations = 18 36

MPI task timing breakdown:
Section |  min time  |  avg time  |  max time  |%varavg| %total
---------------------------------------------------------------
Pair    | 0.003639   | 0.003639   | 0.003639   |   0.0 | 79.49
Neigh   | 0          | 0          | 0          |   0.0 |  0.00
Comm    | 6.2e-05    | 6.2e-05    | 6.2e-05    |   0.0 |  1.35
Output  | 0.000788   | 0.000788   | 0.000788   |   0.0 | 17.21
Modify  | 0          | 0          | 0          |   0.0 |  0.00
Other   |            | 8.9e-05    |            |       |  1.94

Nlocal:            128 ave         128 max         128 min
Histogram: 1 0 0 0 0 0 0 0 0 0
Nghost:           1113 ave        1113 max        1113 min
Histogram: 1 0 0 0 0 0 0 0 0 0
Neighs:           7168 ave        7168 max        7168 min
Histogram: 1 0 0 0 0 0 0 0 0 0

Total # of neighbors = 7168
Ave neighs/atom = 56
Neighbor list builds = 0
Dangerous builds = 0

# Obtain new stress tensor

variable tmp equal pxx
variable pxx1 equal ${tmp}
variable pxx1 equal 1.24597015948384
variable tmp equal pyy
variable pyy1 equal ${tmp}
variable pyy1 equal 1.24597015948483
variable tmp equal pzz
variable pzz1 equal ${tmp}
variable pzz1 equal 2.62162988238931
variable tmp equal pxy
variable pxy1 equal ${tmp}
variable pxy1 equal 1.22366242418248e-11
variable tmp equal pxz
variable pxz1 equal ${tmp}
variable pxz1 equal -1.59856871701824e-11
variable tmp equal pyz
variable pyz1 equal ${tmp}
variable pyz1 equal 2.47872941001852e-11

# Compute elastic constant from pressure tensor

variable C1neg equal ${d1}
variable C1neg equal 124.597015915919
variable C2neg equal ${d2}
variable C2neg equal 124.597015920867
variable C3neg equal ${d3}
variable C3neg equal 262.162988210344
variable C4neg equal ${d4}
variable C4neg equal -3.361567728933e-09
variable C5neg equal ${d5}
variable C5neg equal -5.20971100507039e-09
variable C6neg equal ${d6}
variable C6neg equal 4.08784135449445e-10

# Reset box and simulation parameters

clear
OMP_NUM_THREADS environment is not set. Defaulting to 1 thread. (src/comm.cpp:98)
  using 1 OpenMP thread(s) per MPI task
Loaded 1 plugins from D:\Program Files (x86)\LAMMPS 64-bit 15Jun2023\plugins
box tilt large

The 'box' command has been removed and will be ignored

read_restart restart.equil
Reading restart file ...
  restart file = 15 Jun 2023, LAMMPS = 15 Jun 2023
  restoring atom style atomic from restart
  triclinic box = (-2.0648637e-05 -2.0648637e-05 -2.0648637e-05) to (13.200021 13.200021 13.200021) with tilt (0 0 0)
  1 by 1 by 1 MPI processor grid
  pair style eam/alloy stores no restart info
  128 atoms
  read_restart CPU = 0.000 seconds
include potential.mod
# NOTE: This script can be modified for different pair styles
# See in.elastic for more info.

# Choose potential
pair_style	eam/alloy
pair_coeff * * CuNb.eam.alloy Nb
Reading eam/alloy potential file CuNb.eam.alloy with DATE: 2025-04-10

# Setup neighbor style
neighbor 1.0 nsq
neigh_modify once no every 1 delay 0 check yes

# Setup minimization style
min_style	     cg
min_modify	     dmax ${dmax} line quadratic
min_modify	     dmax 0.01 line quadratic

# Setup output
thermo		1
thermo_style custom step temp pe press pxx pyy pzz pxy pxz pyz lx ly lz vol
thermo_modify norm no

# Positive deformation

variable delta equal ${up}*${len0}
variable delta equal 1e-06*${len0}
variable delta equal 1e-06*13.200041297274
variable deltaxy equal ${up}*xy
variable deltaxy equal 1e-06*xy
variable deltaxz equal ${up}*xz
variable deltaxz equal 1e-06*xz
variable deltayz equal ${up}*yz
variable deltayz equal 1e-06*yz
if "${dir} == 1" then    "change_box all x delta 0 ${delta} xy delta ${deltaxy} xz delta ${deltaxz} remap units box"
if "${dir} == 2" then    "change_box all y delta 0 ${delta} yz delta ${deltayz} remap units box"
if "${dir} == 3" then    "change_box all z delta 0 ${delta} remap units box"
change_box all z delta 0 ${delta} remap units box
change_box all z delta 0 1.3200041297274e-05 remap units box
Changing box ...
  triclinic box = (-2.0648637e-05 -2.0648637e-05 -2.0648637e-05) to (13.200021 13.200021 13.200034) with tilt (0 0 0)
if "${dir} == 4" then    "change_box all yz delta ${delta} remap units box"
if "${dir} == 5" then    "change_box all xz delta ${delta} remap units box"
if "${dir} == 6" then    "change_box all xy delta ${delta} remap units box"

# Relax atoms positions

minimize ${etol} ${ftol} ${maxiter} ${maxeval}
minimize 0 ${ftol} ${maxiter} ${maxeval}
minimize 0 1e-10 ${maxiter} ${maxeval}
minimize 0 1e-10 100 ${maxeval}
minimize 0 1e-10 100 1000
Neighbor list info ...
  update: every = 1 steps, delay = 0 steps, check = yes
  max neighbors/atom: 2000, page size: 100000
  master list distance cutoff = 7.3911966
  ghost atom cutoff = 7.3911966
  1 neighbor lists, perpetual/occasional/extra = 1 0 0
  (1) pair eam/alloy, perpetual
      attributes: half, newton on
      pair build: half/nsq/newton
      stencil: none
      bin: none
Per MPI rank memory allocation (min/avg/max) = 4.458 | 4.458 | 4.458 Mbytes
   Step          Temp          PotEng         Press           Pxx            Pyy            Pzz            Pxy            Pxz            Pyz             Lx             Ly             Lz           Volume    
         3   0             -968.96106     -1.7044244     -1.2458713     -1.2458746     -2.6215271      1.0130987e-06  5.6203077e-06 -6.0641391e-06  13.200041      13.200041      13.200054      2299.9919    
         4   0             -968.96106     -1.7045021     -1.2459506     -1.2459513     -2.6216043     -1.1537196e-06 -1.6091413e-06 -6.0513035e-07  13.200041      13.200041      13.200054      2299.9919    
         5   0             -968.96106     -1.7045123     -1.2459613     -1.2459614     -2.6216142     -3.1724575e-07  1.6480435e-08 -3.1880426e-07  13.200041      13.200041      13.200054      2299.9919    
         6   0             -968.96106     -1.7045139     -1.245963      -1.2459629     -2.6216157     -5.6650272e-08 -5.3353967e-08 -8.0855425e-08  13.200041      13.200041      13.200054      2299.9919    
         7   0             -968.96106     -1.7045142     -1.2459633     -1.2459632     -2.6216161     -1.8825866e-08 -1.4678294e-08 -4.9465985e-08  13.200041      13.200041      13.200054      2299.9919    
         8   0             -968.96106     -1.7045143     -1.2459634     -1.2459634     -2.6216162     -8.9479581e-09 -2.5215455e-09 -2.6606685e-08  13.200041      13.200041      13.200054      2299.9919    
         9   0             -968.96106     -1.7045144     -1.2459635     -1.2459634     -2.6216162     -1.8006049e-09 -2.4013315e-09 -9.389216e-09   13.200041      13.200041      13.200054      2299.9919    
        10   0             -968.96106     -1.7045144     -1.2459635     -1.2459635     -2.6216162     -7.0231616e-10 -4.2136638e-10 -2.6758332e-09  13.200041      13.200041      13.200054      2299.9919    
        11   0             -968.96106     -1.7045144     -1.2459635     -1.2459635     -2.6216162     -8.9105657e-10 -2.2649653e-10 -8.8252221e-10  13.200041      13.200041      13.200054      2299.9919    
        12   0             -968.96106     -1.7045144     -1.2459635     -1.2459635     -2.6216162     -3.1812348e-10 -3.3274172e-11 -1.9009607e-10  13.200041      13.200041      13.200054      2299.9919    
        13   0             -968.96106     -1.7045144     -1.2459635     -1.2459635     -2.6216162     -3.6921531e-11 -2.1345172e-11 -5.6465344e-11  13.200041      13.200041      13.200054      2299.9919    
        14   0             -968.96106     -1.7045144     -1.2459635     -1.2459635     -2.6216162     -1.5450212e-12 -1.7385981e-12  8.7491267e-12  13.200041      13.200041      13.200054      2299.9919    
        15   0             -968.96106     -1.7045144     -1.2459635     -1.2459635     -2.6216162      1.5233304e-11 -3.2837569e-11  7.1500581e-13  13.200041      13.200041      13.200054      2299.9919    
        16   0             -968.96106     -1.7045144     -1.2459635     -1.2459635     -2.6216162     -9.9050576e-12 -4.2897122e-11 -1.6036459e-11  13.200041      13.200041      13.200054      2299.9919    
        17   0             -968.96106     -1.7045144     -1.2459635     -1.2459635     -2.6216162      1.5991135e-13 -1.01209e-12   -2.3198236e-11  13.200041      13.200041      13.200054      2299.9919    
        18   0             -968.96106     -1.7045144     -1.2459635     -1.2459635     -2.6216162      1.5804421e-11  8.645787e-12  -2.6754895e-11  13.200041      13.200041      13.200054      2299.9919    
        19   0             -968.96106     -1.7045144     -1.2459635     -1.2459635     -2.6216162     -1.3728641e-12 -1.4137331e-11  2.863543e-11   13.200041      13.200041      13.200054      2299.9919    
        20   0             -968.96106     -1.7045144     -1.2459635     -1.2459635     -2.6216162     -8.4062534e-12 -1.7882356e-11 -8.8862235e-12  13.200041      13.200041      13.200054      2299.9919    
        21   0             -968.96106     -1.7045144     -1.2459635     -1.2459635     -2.6216162      1.34922e-11    9.1597419e-13  1.2439031e-11  13.200041      13.200041      13.200054      2299.9919    
Loop time of 0.0047 on 1 procs for 18 steps with 128 atoms

0.0% CPU use with 1 MPI tasks x 1 OpenMP threads

Minimization stats:
  Stopping criterion = force tolerance
  Energy initial, next-to-last, final = 
      -968.96105661621  -968.961056653144  -968.961056653126
  Force two-norm initial, final = 0.00074028164 9.9278581e-11
  Force max component initial, final = 9.3794683e-05 1.770752e-11
  Final line search alpha, max atom move = 1 1.770752e-11
  Iterations, force evaluations = 18 36

MPI task timing breakdown:
Section |  min time  |  avg time  |  max time  |%varavg| %total
---------------------------------------------------------------
Pair    | 0.003774   | 0.003774   | 0.003774   |   0.0 | 80.30
Neigh   | 0          | 0          | 0          |   0.0 |  0.00
Comm    | 7e-05      | 7e-05      | 7e-05      |   0.0 |  1.49
Output  | 0.000757   | 0.000757   | 0.000757   |   0.0 | 16.11
Modify  | 0          | 0          | 0          |   0.0 |  0.00
Other   |            | 9.9e-05    |            |       |  2.11

Nlocal:            128 ave         128 max         128 min
Histogram: 1 0 0 0 0 0 0 0 0 0
Nghost:           1113 ave        1113 max        1113 min
Histogram: 1 0 0 0 0 0 0 0 0 0
Neighs:           7168 ave        7168 max        7168 min
Histogram: 1 0 0 0 0 0 0 0 0 0

Total # of neighbors = 7168
Ave neighs/atom = 56
Neighbor list builds = 0
Dangerous builds = 0

# Obtain new stress tensor

variable tmp equal pe
variable e1 equal ${tmp}
variable e1 equal -968.961056653126
variable tmp equal press
variable p1 equal ${tmp}
variable p1 equal -1.70451440419851
variable tmp equal pxx
variable pxx1 equal ${tmp}
variable pxx1 equal -1.24596348326314
variable tmp equal pyy
variable pyy1 equal ${tmp}
variable pyy1 equal -1.24596348328328
variable tmp equal pzz
variable pzz1 equal ${tmp}
variable pzz1 equal -2.6216162460491
variable tmp equal pxy
variable pxy1 equal ${tmp}
variable pxy1 equal 1.3492199709184e-11
variable tmp equal pxz
variable pxz1 equal ${tmp}
variable pxz1 equal 9.1597418701537e-13
variable tmp equal pyz
variable pyz1 equal ${tmp}
variable pyz1 equal 1.24390314546648e-11

# Compute elastic constant from pressure tensor

variable C1pos equal ${d1}
variable C1pos equal 124.596348358779
variable C2pos equal ${d2}
variable C2pos equal 124.596348355944
variable C3pos equal ${d3}
variable C3pos equal 262.161624633497
variable C4pos equal ${d4}
variable C4pos equal 4.59639399348504e-09
variable C5pos equal ${d5}
variable C5pos equal 3.51954486935061e-09
variable C6pos equal ${d6}
variable C6pos equal -5.34341682185365e-10

# Combine positive and negative

variable C1${dir} equal 0.5*(${C1neg}+${C1pos})
variable C13 equal 0.5*(${C1neg}+${C1pos})
variable C13 equal 0.5*(124.597015915919+${C1pos})
variable C13 equal 0.5*(124.597015915919+124.596348358779)
variable C2${dir} equal 0.5*(${C2neg}+${C2pos})
variable C23 equal 0.5*(${C2neg}+${C2pos})
variable C23 equal 0.5*(124.597015920867+${C2pos})
variable C23 equal 0.5*(124.597015920867+124.596348355944)
variable C3${dir} equal 0.5*(${C3neg}+${C3pos})
variable C33 equal 0.5*(${C3neg}+${C3pos})
variable C33 equal 0.5*(262.162988210344+${C3pos})
variable C33 equal 0.5*(262.162988210344+262.161624633497)
variable C4${dir} equal 0.5*(${C4neg}+${C4pos})
variable C43 equal 0.5*(${C4neg}+${C4pos})
variable C43 equal 0.5*(-3.361567728933e-09+${C4pos})
variable C43 equal 0.5*(-3.361567728933e-09+4.59639399348504e-09)
variable C5${dir} equal 0.5*(${C5neg}+${C5pos})
variable C53 equal 0.5*(${C5neg}+${C5pos})
variable C53 equal 0.5*(-5.20971100507039e-09+${C5pos})
variable C53 equal 0.5*(-5.20971100507039e-09+3.51954486935061e-09)
variable C6${dir} equal 0.5*(${C6neg}+${C6pos})
variable C63 equal 0.5*(${C6neg}+${C6pos})
variable C63 equal 0.5*(4.08784135449445e-10+${C6pos})
variable C63 equal 0.5*(4.08784135449445e-10+-5.34341682185365e-10)

# Delete dir to make sure it is not reused

variable dir delete

# uyz Perturbation

variable dir equal 4
include displace.mod
# NOTE: This script should not need to be
# modified. See in.elastic for more info.
#
# Find which reference length to use

if "${dir} == 1" then    "variable len0 equal ${lx0}"
if "${dir} == 2" then    "variable len0 equal ${ly0}"
if "${dir} == 3" then    "variable len0 equal ${lz0}"
if "${dir} == 4" then    "variable len0 equal ${lz0}"
variable len0 equal ${lz0}
variable len0 equal 13.200041297274
if "${dir} == 5" then    "variable len0 equal ${lz0}"
if "${dir} == 6" then    "variable len0 equal ${ly0}"

# Reset box and simulation parameters

clear
OMP_NUM_THREADS environment is not set. Defaulting to 1 thread. (src/comm.cpp:98)
  using 1 OpenMP thread(s) per MPI task
Loaded 1 plugins from D:\Program Files (x86)\LAMMPS 64-bit 15Jun2023\plugins
box tilt large

The 'box' command has been removed and will be ignored

read_restart restart.equil
Reading restart file ...
  restart file = 15 Jun 2023, LAMMPS = 15 Jun 2023
  restoring atom style atomic from restart
  triclinic box = (-2.0648637e-05 -2.0648637e-05 -2.0648637e-05) to (13.200021 13.200021 13.200021) with tilt (0 0 0)
  1 by 1 by 1 MPI processor grid
  pair style eam/alloy stores no restart info
  128 atoms
  read_restart CPU = 0.000 seconds
include potential.mod
# NOTE: This script can be modified for different pair styles
# See in.elastic for more info.

# Choose potential
pair_style	eam/alloy
pair_coeff * * CuNb.eam.alloy Nb
Reading eam/alloy potential file CuNb.eam.alloy with DATE: 2025-04-10

# Setup neighbor style
neighbor 1.0 nsq
neigh_modify once no every 1 delay 0 check yes

# Setup minimization style
min_style	     cg
min_modify	     dmax ${dmax} line quadratic
min_modify	     dmax 0.01 line quadratic

# Setup output
thermo		1
thermo_style custom step temp pe press pxx pyy pzz pxy pxz pyz lx ly lz vol
thermo_modify norm no

# Negative deformation

variable delta equal -${up}*${len0}
variable delta equal -1e-06*${len0}
variable delta equal -1e-06*13.200041297274
variable deltaxy equal -${up}*xy
variable deltaxy equal -1e-06*xy
variable deltaxz equal -${up}*xz
variable deltaxz equal -1e-06*xz
variable deltayz equal -${up}*yz
variable deltayz equal -1e-06*yz
if "${dir} == 1" then    "change_box all x delta 0 ${delta} xy delta ${deltaxy} xz delta ${deltaxz} remap units box"
if "${dir} == 2" then    "change_box all y delta 0 ${delta} yz delta ${deltayz} remap units box"
if "${dir} == 3" then    "change_box all z delta 0 ${delta} remap units box"
if "${dir} == 4" then    "change_box all yz delta ${delta} remap units box"
change_box all yz delta ${delta} remap units box
change_box all yz delta -1.3200041297274e-05 remap units box
Changing box ...
[...]
variable C1neg equal 2.51175786624958e-05
variable C2neg equal ${d2}
variable C2neg equal 2.82210042201989e-05
variable C3neg equal ${d3}
variable C3neg equal 0.000128539671786853
variable C4neg equal ${d4}
variable C4neg equal -6.66425184672499e-09
variable C5neg equal ${d5}
variable C5neg equal -5.19919369183077e-09
variable C6neg equal ${d6}
variable C6neg equal 35.9426741669229

# Reset box and simulation parameters

clear
OMP_NUM_THREADS environment is not set. Defaulting to 1 thread. (src/comm.cpp:98)
  using 1 OpenMP thread(s) per MPI task
Loaded 1 plugins from D:\Program Files (x86)\LAMMPS 64-bit 15Jun2023\plugins
box tilt large

The 'box' command has been removed and will be ignored

read_restart restart.equil
Reading restart file ...
  restart file = 15 Jun 2023, LAMMPS = 15 Jun 2023
  restoring atom style atomic from restart
  triclinic box = (-2.0648637e-05 -2.0648637e-05 -2.0648637e-05) to (13.200021 13.200021 13.200021) with tilt (0 0 0)
  1 by 1 by 1 MPI processor grid
  pair style eam/alloy stores no restart info
  128 atoms
  read_restart CPU = 0.000 seconds
include potential.mod
# NOTE: This script can be modified for different pair styles
# See in.elastic for more info.

# Choose potential
pair_style	eam/alloy
pair_coeff * * CuNb.eam.alloy Nb
Reading eam/alloy potential file CuNb.eam.alloy with DATE: 2025-04-10

# Setup neighbor style
neighbor 1.0 nsq
neigh_modify once no every 1 delay 0 check yes

# Setup minimization style
min_style	     cg
min_modify	     dmax ${dmax} line quadratic
min_modify	     dmax 0.01 line quadratic

# Setup output
thermo		1
thermo_style custom step temp pe press pxx pyy pzz pxy pxz pyz lx ly lz vol
thermo_modify norm no

# Positive deformation

variable delta equal ${up}*${len0}
variable delta equal 1e-06*${len0}
variable delta equal 1e-06*13.200041297274
variable deltaxy equal ${up}*xy
variable deltaxy equal 1e-06*xy
variable deltaxz equal ${up}*xz
variable deltaxz equal 1e-06*xz
variable deltayz equal ${up}*yz
variable deltayz equal 1e-06*yz
if "${dir} == 1" then    "change_box all x delta 0 ${delta} xy delta ${deltaxy} xz delta ${deltaxz} remap units box"
if "${dir} == 2" then    "change_box all y delta 0 ${delta} yz delta ${deltayz} remap units box"
if "${dir} == 3" then    "change_box all z delta 0 ${delta} remap units box"
if "${dir} == 4" then    "change_box all yz delta ${delta} remap units box"
if "${dir} == 5" then    "change_box all xz delta ${delta} remap units box"
if "${dir} == 6" then    "change_box all xy delta ${delta} remap units box"
change_box all xy delta ${delta} remap units box
change_box all xy delta 1.3200041297274e-05 remap units box
Changing box ...
  triclinic box = (-2.0648637e-05 -2.0648637e-05 -2.0648637e-05) to (13.200021 13.200021 13.200021) with tilt (1.3200041e-05 0 0)

# Relax atoms positions

minimize ${etol} ${ftol} ${maxiter} ${maxeval}
minimize 0 ${ftol} ${maxiter} ${maxeval}
minimize 0 1e-10 ${maxiter} ${maxeval}
minimize 0 1e-10 100 ${maxeval}
minimize 0 1e-10 100 1000
Neighbor list info ...
  update: every = 1 steps, delay = 0 steps, check = yes
  max neighbors/atom: 2000, page size: 100000
  master list distance cutoff = 7.3911966
  ghost atom cutoff = 7.3911966
  1 neighbor lists, perpetual/occasional/extra = 1 0 0
  (1) pair eam/alloy, perpetual
      attributes: half, newton on
      pair build: half/nsq/newton
      stencil: none
      bin: none
Per MPI rank memory allocation (min/avg/max) = 4.458 | 4.458 | 4.458 Mbytes
   Step          Temp          PotEng         Press           Pxx            Pyy            Pzz            Pxy            Pxz            Pyz             Lx             Ly             Lz           Volume    
         3   0             -968.96106      9.0655934e-05  9.2430585e-05  8.9136412e-05  9.0400806e-05 -0.35942573     5.6203158e-06 -6.0641422e-06  13.200041      13.200041      13.200041      2299.9896    
         4   0             -968.96106      1.2942126e-05  1.3156161e-05  1.2482786e-05  1.318743e-05  -0.3594279     -1.6091839e-06 -6.0511769e-07  13.200041      13.200041      13.200041      2299.9896    
         5   0             -968.96106      2.6710513e-06  2.3927055e-06  2.319332e-06   3.3011165e-06 -0.35942706     1.6469825e-08 -3.1877996e-07  13.200041      13.200041      13.200041      2299.9896    
         6   0             -968.96106      1.1410164e-06  7.5675492e-07  8.6590141e-07  1.8003929e-06 -0.3594268     -5.3381569e-08 -8.0829504e-08  13.200041      13.200041      13.200041      2299.9896    
         7   0             -968.96106      8.0854089e-07  4.2014057e-07  5.2413571e-07  1.4813464e-06 -0.35942676    -1.4715733e-08 -4.9431049e-08  13.200041      13.200041      13.200041      2299.9896    
         8   0             -968.96106      6.9638222e-07  3.2202623e-07  3.9400882e-07  1.3731116e-06 -0.35942675    -2.5217373e-09 -2.662651e-08   13.200041      13.200041      13.200041      2299.9896    
         9   0             -968.96106      6.439593e-07   2.8212539e-07  3.2729776e-07  1.3224547e-06 -0.35942674    -2.371313e-09  -9.414307e-09   13.200041      13.200041      13.200041      2299.9896    
        10   0             -968.96106      6.1814169e-07  2.6144706e-07  2.960964e-07   1.2968816e-06 -0.35942674    -4.1509858e-10 -2.6633333e-09  13.200041      13.200041      13.200041      2299.9896    
        11   0             -968.96106      6.1027362e-07  2.547424e-07   2.8694626e-07  1.2891322e-06 -0.35942674    -2.5254632e-10 -9.0693409e-10  13.200041      13.200041      13.200041      2299.9896    
        12   0             -968.96106      6.082764e-07   2.5308868e-07  2.8449114e-07  1.2872494e-06 -0.35942674    -2.1399334e-11 -1.8816579e-10  13.200041      13.200041      13.200041      2299.9896    
        13   0             -968.96106      6.0696169e-07  2.5191515e-07  2.829718e-07   1.2859981e-06 -0.35942674    -1.0244773e-11 -4.1392816e-11  13.200041      13.200041      13.200041      2299.9896    
        14   0             -968.96106      6.0670711e-07  2.5166967e-07  2.8267783e-07  1.2857738e-06 -0.35942674     6.1504673e-12 -7.4390891e-12  13.200041      13.200041      13.200041      2299.9896    
        15   0             -968.96106      6.066595e-07   2.5162552e-07  2.8263262e-07  1.2857204e-06 -0.35942674     8.61842e-12   -1.6916128e-12  13.200041      13.200041      13.200041      2299.9896    
        16   0             -968.96106      6.0665447e-07  2.516115e-07   2.8263117e-07  1.2857207e-06 -0.35942674     3.6854565e-12 -3.7410426e-11  13.200041      13.200041      13.200041      2299.9896    
        17   0             -968.96106      6.066778e-07   2.5164577e-07  2.8265959e-07  1.285728e-06  -0.35942674     1.6081766e-11  1.4833821e-11  13.200041      13.200041      13.200041      2299.9896    
        18   0             -968.96106      6.0662952e-07  2.515506e-07   2.8260598e-07  1.285732e-06  -0.35942674     3.5312867e-11  2.2477856e-11  13.200041      13.200041      13.200041      2299.9896    
        19   0             -968.96106      6.0657306e-07  2.5151898e-07  2.8252862e-07  1.2856716e-06 -0.35942674    -1.9630365e-11 -2.3358317e-11  13.200041      13.200041      13.200041      2299.9896    
        20   0             -968.96106      6.0655852e-07  2.515352e-07   2.8249365e-07  1.2856467e-06 -0.35942674    -4.4192259e-12  1.4447433e-11  13.200041      13.200041      13.200041      2299.9896    
        21   0             -968.96106      6.0657114e-07  2.515612e-07   2.8248689e-07  1.2856653e-06 -0.35942674     2.432008e-11  -6.4706658e-11  13.200041      13.200041      13.200041      2299.9896    
        22   0             -968.96106      6.0658417e-07  2.5158198e-07  2.8251048e-07  1.2856601e-06 -0.35942674    -1.5421758e-13  2.9852961e-12  13.200041      13.200041      13.200041      2299.9896    
Loop time of 0.004889 on 1 procs for 19 steps with 128 atoms

0.0% CPU use with 1 MPI tasks x 1 OpenMP threads

Minimization stats:
  Stopping criterion = force tolerance
  Energy initial, next-to-last, final = 
     -968.961056617829   -968.96105665478  -968.961056654781
  Force two-norm initial, final = 0.00074028452 2.8268774e-11
  Force max component initial, final = 9.3795067e-05 4.4453317e-12
  Final line search alpha, max atom move = 1 4.4453317e-12
  Iterations, force evaluations = 19 38

MPI task timing breakdown:
Section |  min time  |  avg time  |  max time  |%varavg| %total
---------------------------------------------------------------
Pair    | 0.003896   | 0.003896   | 0.003896   |   0.0 | 79.69
Neigh   | 0          | 0          | 0          |   0.0 |  0.00
Comm    | 7.5e-05    | 7.5e-05    | 7.5e-05    |   0.0 |  1.53
Output  | 0.00083    | 0.00083    | 0.00083    |   0.0 | 16.98
Modify  | 0          | 0          | 0          |   0.0 |  0.00
Other   |            | 8.8e-05    |            |       |  1.80

Nlocal:            128 ave         128 max         128 min
Histogram: 1 0 0 0 0 0 0 0 0 0
Nghost:           1113 ave        1113 max        1113 min
Histogram: 1 0 0 0 0 0 0 0 0 0
Neighs:           7168 ave        7168 max        7168 min
Histogram: 1 0 0 0 0 0 0 0 0 0

Total # of neighbors = 7168
Ave neighs/atom = 56
Neighbor list builds = 0
Dangerous builds = 0

# Obtain new stress tensor

variable tmp equal pe
variable e1 equal ${tmp}
variable e1 equal -968.961056654781
variable tmp equal press
variable p1 equal ${tmp}
variable p1 equal 6.06584174986077e-07
variable tmp equal pxx
variable pxx1 equal ${tmp}
variable pxx1 equal 2.5158198489151e-07
variable tmp equal pyy
variable pyy1 equal ${tmp}
variable pyy1 equal 2.82510483909162e-07
variable tmp equal pzz
variable pzz1 equal ${tmp}
variable pzz1 equal 1.28566005615756e-06
variable tmp equal pxy
variable pxy1 equal ${tmp}
variable pxy1 equal -0.359426741674371
variable tmp equal pxz
variable pxz1 equal ${tmp}
variable pxz1 equal -1.54217579532866e-13
variable tmp equal pyz
variable pyz1 equal ${tmp}
variable pyz1 equal 2.98529609446876e-12

# Compute elastic constant from pressure tensor

variable C1pos equal ${d1}
variable C1pos equal -2.51257330811345e-05
variable C2pos equal ${d2}
variable C2pos equal -2.8223432463333e-05
variable C3pos equal ${d3}
variable C3pos equal -0.000128537418186103
variable C4pos equal ${d4}
variable C4pos equal 5.54176752950464e-09
variable C5pos equal ${d5}
variable C5pos equal 3.62656404600544e-09
variable C6pos equal ${d6}
variable C6pos equal 35.942674168252

# Combine positive and negative

variable C1${dir} equal 0.5*(${C1neg}+${C1pos})
variable C16 equal 0.5*(${C1neg}+${C1pos})
variable C16 equal 0.5*(2.51175786624958e-05+${C1pos})
variable C16 equal 0.5*(2.51175786624958e-05+-2.51257330811345e-05)
variable C2${dir} equal 0.5*(${C2neg}+${C2pos})
variable C26 equal 0.5*(${C2neg}+${C2pos})
variable C26 equal 0.5*(2.82210042201989e-05+${C2pos})
variable C26 equal 0.5*(2.82210042201989e-05+-2.8223432463333e-05)
variable C3${dir} equal 0.5*(${C3neg}+${C3pos})
variable C36 equal 0.5*(${C3neg}+${C3pos})
variable C36 equal 0.5*(0.000128539671786853+${C3pos})
variable C36 equal 0.5*(0.000128539671786853+-0.000128537418186103)
variable C4${dir} equal 0.5*(${C4neg}+${C4pos})
variable C46 equal 0.5*(${C4neg}+${C4pos})
variable C46 equal 0.5*(-6.66425184672499e-09+${C4pos})
variable C46 equal 0.5*(-6.66425184672499e-09+5.54176752950464e-09)
variable C5${dir} equal 0.5*(${C5neg}+${C5pos})
variable C56 equal 0.5*(${C5neg}+${C5pos})
variable C56 equal 0.5*(-5.19919369183077e-09+${C5pos})
variable C56 equal 0.5*(-5.19919369183077e-09+3.62656404600544e-09)
variable C6${dir} equal 0.5*(${C6neg}+${C6pos})
variable C66 equal 0.5*(${C6neg}+${C6pos})
variable C66 equal 0.5*(35.9426741669229+${C6pos})
variable C66 equal 0.5*(35.9426741669229+35.942674168252)

# Delete dir to make sure it is not reused

variable dir delete

# Output final values

variable C11all equal ${C11}
variable C11all equal 262.162306427008
variable C22all equal ${C22}
variable C22all equal 262.162306425539
variable C33all equal ${C33}
variable C33all equal 262.162306421921

variable C12all equal 0.5*(${C12}+${C21})
variable C12all equal 0.5*(124.596682138934+${C21})
variable C12all equal 0.5*(124.596682138934+124.596682141831)
variable C13all equal 0.5*(${C13}+${C31})
variable C13all equal 0.5*(124.596682137349+${C31})
variable C13all equal 0.5*(124.596682137349+124.596682140778)
variable C23all equal 0.5*(${C23}+${C32})
variable C23all equal 0.5*(124.596682138405+${C32})
variable C23all equal 0.5*(124.596682138405+124.596682140693)

variable C44all equal ${C44}
variable C44all equal 35.9426741684238
variable C55all equal ${C55}
variable C55all equal 35.9426741693594
variable C66all equal ${C66}
variable C66all equal 35.9426741675874

variable C14all equal 0.5*(${C14}+${C41})
variable C14all equal 0.5*(-2.06602759900143e-09+${C41})
variable C14all equal 0.5*(-2.06602759900143e-09+-1.14756100071187e-09)
variable C15all equal 0.5*(${C15}+${C51})
variable C15all equal 0.5*(-7.5887722099499e-11+${C51})
variable C15all equal 0.5*(-7.5887722099499e-11+-2.01484495470438e-09)
variable C16all equal 0.5*(${C16}+${C61})
variable C16all equal 0.5*(-4.07720931935038e-09+${C61})
variable C16all equal 0.5*(-4.07720931935038e-09+2.56015112058402e-10)

variable C24all equal 0.5*(${C24}+${C42})
variable C24all equal 0.5*(-1.88318896519948e-09+${C42})
variable C24all equal 0.5*(-1.88318896519948e-09+7.14220878404495e-10)
variable C25all equal 0.5*(${C25}+${C52})
variable C25all equal 0.5*(-7.88681905008093e-10+${C52})
variable C25all equal 0.5*(-7.88681905008093e-10+-1.30754590282315e-09)
variable C26all equal 0.5*(${C26}+${C62})
variable C26all equal 0.5*(-1.2141215670504e-09+${C62})
variable C26all equal 0.5*(-1.2141215670504e-09+-5.91668831086392e-10)

variable C34all equal 0.5*(${C34}+${C43})
variable C34all equal 0.5*(-2.14921228375154e-09+${C43})
variable C34all equal 0.5*(-2.14921228375154e-09+6.1741313227602e-10)
variable C35all equal 0.5*(${C35}+${C53})
variable C35all equal 0.5*(-2.68604843030056e-09+${C53})
variable C35all equal 0.5*(-2.68604843030056e-09+-8.4508306785989e-10)
variable C36all equal 0.5*(${C36}+${C63})
variable C36all equal 0.5*(1.12680037499811e-09+${C63})
variable C36all equal 0.5*(1.12680037499811e-09+-6.277877336796e-11)

variable C45all equal 0.5*(${C45}+${C54})
variable C45all equal 0.5*(-1.003706346483e-09+${C54})
variable C45all equal 0.5*(-1.003706346483e-09+-5.32995458197595e-10)
variable C46all equal 0.5*(${C46}+${C64})
variable C46all equal 0.5*(-5.61242158610175e-10+${C64})
variable C46all equal 0.5*(-5.61242158610175e-10+-7.12255471801847e-10)
variable C56all equal 0.5*(${C56}+${C65})
variable C56all equal 0.5*(-7.86314822912665e-10+${C65})
variable C56all equal 0.5*(-7.86314822912665e-10+-3.62329089196497e-10)

# Average moduli for cubic crystals

variable C11cubic equal (${C11all}+${C22all}+${C33all})/3.0
variable C11cubic equal (262.162306427008+${C22all}+${C33all})/3.0
variable C11cubic equal (262.162306427008+262.162306425539+${C33all})/3.0
variable C11cubic equal (262.162306427008+262.162306425539+262.162306421921)/3.0
variable C12cubic equal (${C12all}+${C13all}+${C23all})/3.0
variable C12cubic equal (124.596682140382+${C13all}+${C23all})/3.0
variable C12cubic equal (124.596682140382+124.596682139064+${C23all})/3.0
variable C12cubic equal (124.596682140382+124.596682139064+124.596682139549)/3.0
variable C44cubic equal (${C44all}+${C55all}+${C66all})/3.0
variable C44cubic equal (35.9426741684238+${C55all}+${C66all})/3.0
variable C44cubic equal (35.9426741684238+35.9426741693594+${C66all})/3.0
variable C44cubic equal (35.9426741684238+35.9426741693594+35.9426741675874)/3.0

variable bulkmodulus equal (${C11cubic}+2*${C12cubic})/3.0
variable bulkmodulus equal (262.162306424823+2*${C12cubic})/3.0
variable bulkmodulus equal (262.162306424823+2*124.596682139665)/3.0
variable shearmodulus1 equal ${C44cubic}
variable shearmodulus1 equal 35.9426741684569
variable shearmodulus2 equal (${C11cubic}-${C12cubic})/2.0
variable shearmodulus2 equal (262.162306424823-${C12cubic})/2.0
variable shearmodulus2 equal (262.162306424823-124.596682139665)/2.0
variable poissonratio equal 1.0/(1.0+${C11cubic}/${C12cubic})
variable poissonratio equal 1.0/(1.0+262.162306424823/${C12cubic})
variable poissonratio equal 1.0/(1.0+262.162306424823/124.596682139665)

# For Stillinger-Weber silicon, the analytical results
# are known to be (E. R. Cowley, 1988):
#               C11 = 151.4 GPa
#               C12 = 76.4 GPa
#               C44 = 56.4 GPa

print "========================================="
=========================================
print "Components of the Elastic Constant Tensor"
Components of the Elastic Constant Tensor
print "========================================="
=========================================

print "Elastic Constant C11all = ${C11all} ${cunits}"
Elastic Constant C11all = 262.162306427008 GPa
print "Elastic Constant C22all = ${C22all} ${cunits}"
Elastic Constant C22all = 262.162306425539 GPa
print "Elastic Constant C33all = ${C33all} ${cunits}"
Elastic Constant C33all = 262.162306421921 GPa

print "Elastic Constant C12all = ${C12all} ${cunits}"
Elastic Constant C12all = 124.596682140382 GPa
print "Elastic Constant C13all = ${C13all} ${cunits}"
Elastic Constant C13all = 124.596682139064 GPa
print "Elastic Constant C23all = ${C23all} ${cunits}"
Elastic Constant C23all = 124.596682139549 GPa

print "Elastic Constant C44all = ${C44all} ${cunits}"
Elastic Constant C44all = 35.9426741684238 GPa
print "Elastic Constant C55all = ${C55all} ${cunits}"
Elastic Constant C55all = 35.9426741693594 GPa
print "Elastic Constant C66all = ${C66all} ${cunits}"
Elastic Constant C66all = 35.9426741675874 GPa

print "Elastic Constant C14all = ${C14all} ${cunits}"
Elastic Constant C14all = -1.60679429985665e-09 GPa
print "Elastic Constant C15all = ${C15all} ${cunits}"
Elastic Constant C15all = -1.04536633840194e-09 GPa
print "Elastic Constant C16all = ${C16all} ${cunits}"
Elastic Constant C16all = -1.91059710364599e-09 GPa

print "Elastic Constant C24all = ${C24all} ${cunits}"
Elastic Constant C24all = -5.84484043397492e-10 GPa
print "Elastic Constant C25all = ${C25all} ${cunits}"
Elastic Constant C25all = -1.04811390391562e-09 GPa
print "Elastic Constant C26all = ${C26all} ${cunits}"
Elastic Constant C26all = -9.02895199068396e-10 GPa

print "Elastic Constant C34all = ${C34all} ${cunits}"
Elastic Constant C34all = -7.6589957573776e-10 GPa
print "Elastic Constant C35all = ${C35all} ${cunits}"
Elastic Constant C35all = -1.76556574908022e-09 GPa
print "Elastic Constant C36all = ${C36all} ${cunits}"
Elastic Constant C36all = 5.32010800815075e-10 GPa

print "Elastic Constant C45all = ${C45all} ${cunits}"
Elastic Constant C45all = -7.68350902340297e-10 GPa
print "Elastic Constant C46all = ${C46all} ${cunits}"
Elastic Constant C46all = -6.36748815206011e-10 GPa
print "Elastic Constant C56all = ${C56all} ${cunits}"
Elastic Constant C56all = -5.74321956054581e-10 GPa

print "========================================="
=========================================
print "Average properties for a cubic crystal"
Average properties for a cubic crystal
print "========================================="
=========================================

print "Bulk Modulus = ${bulkmodulus} ${cunits}"
Bulk Modulus = 170.451890234718 GPa
print "Shear Modulus 1 = ${shearmodulus1} ${cunits}"
Shear Modulus 1 = 35.9426741684569 GPa
print "Shear Modulus 2 = ${shearmodulus2} ${cunits}"
Shear Modulus 2 = 68.782812142579 GPa
print "Poisson Ratio = ${poissonratio}"
Poisson Ratio = 0.322155879562421
Total wall time: 0:00:00
