# vtk DataFile Version 3.0
# Voxel grid data written by OVITO Pro 3.11.1
ASCII
DATASET STRUCTURED_POINTS
DIMENSIONS 100 100 1
ORIGIN -21.8147604206 7.8145097086 6.4641307662
SPACING 2.4606952084 1.8681098058 1.0
POINT_DATA 10000

SCALARS Density double 1
LOOKUP_TABLE default
0.002812527 0.0018231754 0.0042678043 0.0051985755 0.0013186867 0.0023477024 0.0026122086 0.0024240641 0.0016991758 0.0030511344 0.0107841872 0.0082843729 0.0037203916 0.0026630766 0.0113188248 0.0130038184 0.0049437572 0.002543324 0.0020748684 0.0011058116 0.0014115708 0.0037040005 0.0015653413 0.0084823798 0.0066038638 0.0019816822 0.0012319416 0.0068031611 0.0105597312 0.003740404 0.0042088396 0.0070380282 0.0052872853 0.0014936268 0.0042258373 0.0021766213 1.7938949475e-04 0.0024548831 0.0038668919 0.0025812229 0.003302567 7.0939632553e-04 5.5602830501e-04 0.0029915412 0.0044143601 0.0027883744 0.0082341416 0.0128526253 0.0093819534 0.0104608014 0.0094328447 0.0089014849 0.0095989534 0.008077723 0.0073193336 0.0192929746 0.0073151554 0.0060796981 0.0011736508 0.0032623801 0.0069500805 0.0050606195 0.0020463725 8.0996937925e-04 0.0019446137 0.001957188 0.0016629099 0.0042365851 0.0013168003 0.0031594154 0.0052678281 0.0062089924 0.0035919113 0.0031225228 0.0037853481 0.0016224296 0.0013971587 3.1874854355e-04 0.0019563094 1.7083854583e-05 0.0 1.8681659162e-05 0.0020835637 5.0810041728e-04 0.0 0.0 0.0 0.0 0.0 0.0 2.6137076829e-04 0.0063288911 0.0118115424 0.003671825 0.003056172 0.0022927292 0.0022793594 1.312225239e-06 6.257149606e-04 0.0031195959 
0.0010793435 0.0019713155 0.004535846 0.0052646642 0.0064112307 0.0077311037 0.0127875191 0.0037752376 0.0042470177 0.0065818632 0.0064885595 0.0047147546 0.0029589634 0.0057191098 0.0073796325 0.0097109949 0.0058737959 0.0013264372 0.0031251738 0.0048965217 0.002277774 7.0705293382e-04 0.0044594225 0.0061847755 0.0072111765 0.0027224691 0.0038674284 0.0094729445 0.0018164188 7.2385894029e-04 0.0013413524 0.0031479327 0.0091836334 0.0038272823 0.0048419977 7.1624571337e-04 4.3168074115e-04 0.0034915048 0.0034080692 0.0024478732 0.0024169738 5.7550978251e-05 4.274152087e-06 0.0031775486 0.0021988669 0.0045255674 0.0084312662 0.0101636454 0.0075880214 0.0114629596 0.015074457 0.0130450221 0.0056003418 0.0019062834 0.0168508004 0.0103224593 0.0060590834 0.008226561 0.003760668 0.005167973 0.0127665492 0.0082109919 9.9376363335e-04 0.003240383 0.0087855555 0.0037710989 0.003909319 0.0048592723 0.0061235107 0.004625982 0.0090397599 0.0056834664 0.0067507726 0.0043929463 0.0057910844 0.0021609344 0.0022866558 0.0016779091 0.0013980949 0.0 0.0 0.0 0.0011002507 0.0015551537 4.8786235595e-09 0.0 0.0 0.0 0.0 0.0 0.0 0.0034064573 0.0132204473 0.0108082345 0.0064980868 0.0047641902 0.0024563772 1.6516548e-04 1.9501578815e-05 0.0020129382 
0.0021046669 8.0242223473e-05 7.8671523587e-04 0.0046250265 0.0058109152 0.0107956855 0.016321063 0.004504736 0.0052572195 0.0030352386 0.0052159684 0.005710437 4.4360768201e-04 0.0021437639 0.0059099536 0.004960651 0.0044528871 0.0030941644 0.0037226675 0.0059805164 0.0030243654 0.0029029595 0.0047482189 0.0057997345 0.0034691514 0.0017293132 0.0032347024 0.0052628413 9.1144895936e-04 9.2016069624e-05 2.4493155979e-04 0.001225849 0.0018399073 0.0039092203 0.0027386443 9.4641933273e-04 0.001470433 0.0022895985 0.0032879386 0.005110264 0.0078529412 0.0062023256 0.0013278413 0.0027501491 0.0026474177 0.0064418543 0.0081484467 0.0066040237 0.0062324132 0.0046489856 0.0031310341 0.0031277254 0.0014512002 0.0093330177 0.0191504158 0.0082439414 0.0062339647 0.0093169117 0.01187452 0.0105179107 0.0143905091 0.0102497136 0.0035989907 0.0027242409 0.0059373123 0.0013192361 0.0023352871 0.005238556 0.0090577825 0.0061236948 0.0084122009 0.002629347 0.0033125204 0.0061048444 0.0054509047 0.0023651301 0.0015942298 0.0036129826 0.0018142932 0.0 0.0 0.0 1.7382743776e-04 0.002290803 2.2350478433e-04 0.0 0.0 0.0 0.0 0.0 0.0 0.0020529252 0.002304109 0.0068684525 0.0078362453 0.0108854459 0.0023230897 7.8886654696e-04 0.0 7.4103625476e-04 
0.0017489466 0.0013929324 2.026211972e-06 0.0029713418 0.0061920064 0.007184032 0.0079202388 0.0050383204 0.0031241972 6.5526565184e-04 0.004834527 0.0034998688 0.0041715935 0.0063700236 0.0076051638 0.0039709642 0.0047133835 0.0033761836 0.0060556844 0.0055698382 0.0028014312 0.0035949046 0.0023285392 0.0062937239 0.0019331657 8.9366215396e-04 0.0019545636 9.9228591025e-04 0.0020394125 5.0665675014e-05 0.0024508981 0.0043614449 0.0029514599 0.0037587754 0.0018867284 6.6462100772e-04 0.0024891159 0.0027787961 0.0039590775 0.0028028871 0.0086573756 0.0074647444 0.001946225 0.0024777533 0.0036918753 0.0016861007 0.0053469453 0.0083312248 0.005914993 7.5346791529e-04 1.4381933323e-04 0.003582123 0.007033839 0.0144263904 0.0082144098 0.0119758975 0.0087221059 0.0125834076 0.0149450038 0.0090478703 0.0091448225 0.0107710794 0.0066375458 0.0050274562 0.0051595897 0.00298844 0.0029572725 0.0068182251 0.0061982925 0.0030698035 0.0040374608 0.0021524278 0.0029379278 0.0058058632 0.0060956791 0.0026767913 0.0024118866 0.0021031484 0.0036393948 0.0011917423 5.5997893115e-05 0.0 0.0 0.0013687818 0.0014981984 1.4636502049e-06 0.0 0.0 0.0 0.0 6.0090329688e-04 0.0031684544 0.0019619495 0.0024584935 0.0043107691 0.0086821433 0.0041604158 0.0023358719 4.1050931378e-06 2.766860359e-05 
1.6858143537e-04 0.0022457294 2.6869635595e-04 0.0017290958 0.0031602853 0.0039587625 0.003594773 0.0025771508 0.0015786074 2.0637709197e-04 0.0033531055 0.0019608534 0.0100226982 0.0101973748 0.007271623 0.0037486629 0.0033715326 0.0081951473 0.0049461336 0.0049884132 0.0081336552 0.0020492838 0.0014142454 0.0018736997 0.0026776431 0.0024523577 3.752883081e-04 6.1722672304e-06 3.7655600305e-05 0.0 0.0015532924 0.0025017428 0.0026300405 0.0029439696 0.0035545583 0.0013842357 0.0056911832 0.0017875208 9.8623595234e-05 0.0019448846 0.0039175567 0.0036989662 8.7463657207e-06 1.0638779545e-05 0.0018146743 0.0044273069 0.004501488 0.004092458 0.0092085799 0.004809952 8.8646788164e-04 0.0057153677 0.0104809733 0.0089746831 0.0047468051 0.010980629 0.0088766157 0.011181645 0.0165279543 0.0095912118 0.0070928468 0.0175522587 0.0117587853 0.0023890309 0.0074247172 0.0094463234 0.0087956898 0.0096389713 0.0077285825 0.0010920518 0.0020236288 0.0044701647 0.0045839034 0.0096739303 0.0067021936 0.005873978 0.0066859372 0.0079988834 0.0050307776 0.0037200129 0.002497544 6.8093480388e-04 1.8753666345e-05 1.6044546833e-04 0.0022874401 5.8582094267e-04 7.7512529575e-04 0.0012888946 9.2640459668e-04 0.0015446274 0.0036484525 0.0024600232 0.0018999628 7.8599134818e-05 0.004954151 0.0072608014 0.0021300416 0.0046727471 0.0014583076 7.0688238486e-05 
1.5137700574e-04 0.0020108177 0.00298948 0.0017378628 0.002133094 0.0047549404 0.0018569126 0.0026478981 5.2113710071e-04 6.5063086402e-04 0.0018253883 0.0042066956 0.0248389462 0.0090602881 0.0038638387 0.004516078 0.0025607962 0.0015558462 0.0035864545 0.002923828 0.0025795422 2.8355897413e-04 0.0015424297 0.0012988403 0.0041662929 0.0044027506 0.0011991139 0.0018828036 0.0011890405 0.0 0.0 5.3021397915e-04 0.004909171 0.0026856016 0.002630924 0.0047584269 0.003027672 1.5266050218e-05 8.1333846625e-05 0.0037640048 0.0040227939 0.0014715439 0.0 0.0 6.7487386314e-04 0.0050086764 0.0035586967 0.0069823424 0.0018717379 0.0069141053 0.0066307091 0.0053460043 0.0077858465 0.0032365 0.0067174922 0.0111291206 0.0098581633 0.0118956785 0.0110988394 0.003942158 0.0072143608 0.013824666 0.0064117017 1.9378713731e-04 0.0014706983 0.0078233753 0.0118481084 0.0139909677 0.0030386936 0.0031223323 0.0052582648 0.0068995706 0.0042084899 0.0112372026 0.0182367477 0.0121966204 0.0101593148 0.014588559 0.0098901612 0.0030828981 0.0041266735 0.0029337733 0.0024315741 0.0012133826 0.0020810593 0.0045817865 0.0021768343 0.0024770149 0.0036473514 0.003358222 0.0017218797 0.0024203502 2.6456382972e-04 0.0 0.0055472311 0.0049302308 0.0035615188 0.0024750129 0.0026772715 0.0022286213 
0.0050292018 0.0034867371 0.0023681789 0.0014689008 0.0060824155 0.0040664408 2.9370172934e-04 0.0029121326 5.2222225664e-05 5.8859913817e-04 0.0019035492 0.0053798362 0.0185999322 0.0072966387 0.0026364813 0.0056974362 0.0027291117 5.4944523303e-05 0.0018623007 0.0013471484 0.0026286216 0.0010478439 0.0027076132 0.0034400947 0.0023251498 0.0039419923 0.0038357405 0.0039245692 2.5849967487e-04 0.0 9.2915490349e-06 0.0022457014 0.0032484917 0.003200746 0.0016626439 0.0045779793 7.3665807218e-04 0.0 0.0014800582 0.0044415263 0.0024978805 4.3125233789e-05 0.0 0.0 1.6711100183e-04 0.0049693311 0.0061342326 0.0067903862 0.0063307663 0.0070422829 0.0043854191 0.0057989733 0.0058016535 0.0057910192 0.0099468595 0.0172835888 0.0121062363 0.0133945897 0.00745555 0.0038334934 0.0064364286 0.0093418475 0.0063893512 0.0047090254 0.0030470129 0.0053920326 0.0113356511 0.0173895336 0.00735437 0.0043139296 0.0050531463 0.0064783958 0.0081813992 0.0119093087 0.0086526389 0.0032970465 0.0053124217 0.0137230857 0.0075437144 0.0023606494 0.0025958596 0.0020282611 8.7907526138e-04 0.0021747912 0.0031265023 0.0028199626 2.6851814684e-04 0.0 0.0 5.6818818877e-04 0.0026230405 4.9581744571e-04 0.0 0.0 0.0060800803 0.0074245222 0.0051096479 0.0054823217 0.0081029373 0.010828623 
0.0072235487 0.0019519158 0.0030716826 0.0037998469 0.0092358517 0.0028652782 0.0023793972 0.0028386162 8.190022875e-07 2.7362286927e-04 0.0034681443 0.0047507314 0.0172804694 0.0043187986 0.0017772867 0.007013109 0.0027513627 0.0 4.1400279187e-04 0.0046857589 0.0089261057 0.0036293723 0.0031564097 0.0019791553 9.5683590818e-06 4.0879119019e-04 0.0040432633 0.0020260391 6.3389173689e-04 0.0 2.6133043583e-05 0.0033395507 0.0016944773 0.0059356568 0.0064878944 9.4661153332e-04 0.0 2.5664930847e-04 0.0037142199 0.0036127238 2.6593453839e-04 0.0 0.0 0.0 2.2779873725e-04 0.0058071028 0.0097280901 0.001206325 0.0059096845 0.0042228338 0.004036225 0.0112422422 0.0108143524 0.0098203649 0.0062363204 0.0060982376 0.0078473113 0.0150891767 0.0130451787 0.0020976647 0.0024316351 0.0069405264 0.0036465862 0.0030204324 0.0023739575 0.0030805317 0.0084050952 0.0098127378 0.0081884766 0.0041201404 0.0016796924 0.0034299232 0.0126296632 0.010233153 0.0053188609 0.0017955434 2.0768702189e-04 0.0066435316 0.0056700847 0.0024610606 0.0047851143 0.0026269336 4.6490527506e-04 0.0 0.0 0.0013190343 0.0011123447 0.0 3.1788575173e-04 0.0028773262 9.528898664e-04 6.9536728711e-12 0.0 0.0 0.002288683 0.0057720471 0.0053982105 0.0062146917 0.0243731892 0.0123135183 
0.0037384963 0.0066841968 0.0055788953 0.0044989212 0.0068668158 0.0013676253 0.0011406087 0.0024269887 4.242880425e-04 5.2033968304e-04 0.0069669321 0.003836215 0.0119344392 0.0071837725 0.0036354182 0.0077572509 0.0041086262 3.557706766e-04 0.0036941713 0.0050228585 0.0048101493 0.0047283674 0.0019277776 0.0028817557 5.5880909027e-04 8.1744753322e-06 0.0038147615 0.0066791418 0.0048029012 2.2010988493e-04 7.295390121e-05 0.0030321699 0.0026564875 0.006523741 0.00303993 3.5083827435e-06 1.3168448414e-05 0.0020000261 0.0043539277 8.4285702549e-04 0.0 0.0 0.0 3.7464832486e-07 9.7361197112e-04 0.004324476 0.0050165818 0.0029332888 0.0027434488 4.7494994056e-04 0.0030561146 0.0082918653 0.0087343105 0.0068036496 0.0041058746 0.0048704333 0.0054563348 0.0048615299 0.0087532117 0.0011201656 0.0040200213 0.0036080413 0.0026128086 0.002223425 0.002405123 0.0032354751 0.0061286616 0.00422479 0.0038136599 0.0024112003 0.0022711221 0.0038025336 0.0035166163 0.0028313887 0.0014014036 0.0019181904 0.0023474489 0.0042375745 0.0039261894 0.0021633469 0.0028178183 0.0015400864 0.0015387451 0.0 0.0 4.2729721628e-04 0.0019875105 7.8956804443e-05 0.0025069969 0.0014693343 3.7359788952e-06 0.0 0.0 0.0 0.0012317876 0.0023900432 0.0025455216 0.0055618525 0.0076845607 0.0064100447 
0.0026018992 0.0106208063 0.0114116202 0.0030435011 0.0019261722 0.0012729251 1.31708816e-05 0.0012129941 0.0015478888 0.0034580215 0.0063297802 0.0020265834 0.0028458623 0.0045490318 0.0081897271 0.0051520313 0.0064843492 0.0072421357 0.0100254774 0.0054242051 0.0079037603 0.003620274 0.0022126865 0.0013959685 0.0019111951 0.0014411074 0.0039130726 0.0039376936 0.0084550045 0.0038470314 0.0025224193 0.0029481074 0.0044404921 0.0028538656 0.0035359699 3.8978505367e-06 0.0013071125 0.0057102254 0.0019079603 3.2345059753e-06 0.0 1.0456922835e-04 4.3182774107e-04 1.7488498597e-04 0.0010086602 0.0020765223 0.0011987036 0.0040050791 0.0052317952 0.0049226961 0.0027612847 0.0010273781 0.0039837059 0.0043961658 0.0072869804 0.004931895 0.0034531548 0.0039285885 0.0020039492 0.0013290466 0.0036247202 0.001983163 5.5194674062e-05 0.0 7.945536555e-04 0.0045433005 0.0033582438 0.0041767621 0.0017293701 0.0017299113 0.0016023888 3.691468501e-05 0.0 5.5665229974e-04 0.002187716 5.8689135978e-04 0.0053526445 0.0031656437 0.0031627559 0.0024958375 0.0018643832 2.6001734287e-04 0.0021918698 1.2048592799e-04 0.0 1.2580447458e-05 0.0020448423 0.0017149195 0.0025552274 4.5657773187e-05 0.0 0.0 0.0 0.0 2.7270724377e-04 0.0035772983 0.0075207574 0.0056805438 7.7620620243e-04 0.003590118 
0.0078832641 0.0141151015 0.0138821786 0.0014282452 2.7269648268e-04 0.0021850864 0.0011940459 0.0013655792 0.0030759405 0.0049425778 0.0014537745 0.0031659918 0.0039852298 0.006069324 0.0073297113 0.0046603988 0.0043160243 0.0017223034 0.0028219437 0.0031903876 0.0035679162 0.0013201082 0.0026370775 3.1314346433e-04 0.0021088173 0.0069156095 0.0030414815 0.0032617113 0.0088855997 0.0080436962 0.0056481722 0.0069039435 0.0056707843 5.6763776257e-04 0.0049958182 8.8679074425e-04 0.004177813 0.0056142971 0.0020745114 3.5636451221e-05 9.8418206448e-04 0.002533731 0.0023164452 6.1453325918e-04 3.2253984518e-07 1.3995367856e-04 5.0728200571e-05 2.0291979833e-04 0.0032187055 0.0064759067 0.0014042146 0.0016352554 0.0035264058 0.0046661478 0.0051503584 0.0078948192 8.7134844609e-04 0.0024938784 0.0018794565 0.0014918091 0.0034991808 0.0031538871 0.0010516487 4.5140834772e-07 2.841793818e-04 0.002564444 0.0114821705 0.0038919472 0.0019844694 9.2964648305e-05 0.0019150302 9.6200371689e-04 0.0 1.8917553207e-05 0.0029788782 0.0063498369 0.0040550797 0.0022935001 0.0040745838 0.0020750599 0.0021516995 7.7887494464e-04 0.0020520636 9.8334636098e-04 0.0 0.0 0.0014534204 0.0048955601 5.902574077e-04 0.0 0.0 0.0 0.0 3.817145648e-05 0.0027519509 0.0119034446 0.0156553194 0.0028377951 0.0010507091 0.0041253354 
0.0121036545 0.0132579573 0.0066787498 0.0021543893 0.0013536722 2.3878423503e-04 0.0022964672 0.0042643361 0.0069877984 0.0029621986 6.7944075335e-05 6.8656435378e-04 0.0084361229 0.0073354812 0.0011533253 5.0471128497e-04 0.0055685229 0.0025799996 0.0024877457 5.267308394e-04 0.0027082659 3.504943761e-06 0.0015289475 1.9996122536e-04 0.0019411017 0.0094093462 0.0039578215 0.0039198828 0.0036725761 0.0048972586 0.0030407828 0.0018963964 0.0039474898 0.0025390444 0.0047630266 0.004846075 0.0048715132 6.5376144558e-04 0.0033858658 0.0019145857 0.0021332148 9.3382315421e-04 0.0059356519 0.003223189 0.0038491009 0.0041047169 0.0039436029 0.0026976152 0.0016351988 0.0020625924 0.0053618366 0.0040835379 0.0036349313 0.0047284354 0.0061982616 0.0072936736 0.0044409822 0.0032428765 0.0018022109 6.3456467806e-05 0.0021946912 0.0035346794 0.0039715115 0.0025895128 5.5835533727e-04 0.0042339054 0.0121340001 0.0023027322 0.0022164702 4.4202398751e-04 3.3802226508e-04 0.0022234229 0.0014605027 0.0032895005 0.0037775414 0.0032080998 0.0010762172 0.0019489791 0.0019502622 0.0042108252 4.8596513599e-04 0.0030876484 0.0055642968 0.0046955962 3.4277717699e-05 5.997893693e-04 0.0026936632 0.0070715297 6.7299958135e-06 0.0 0.0 0.0 2.7225654129e-05 0.0026306704 0.0062331578 0.0038938125 0.0056131979 0.0035880947 0.0038423002 0.0066400886 
0.0047028717 0.0034017001 0.0060453364 3.4212167824e-04 0.002153333 0.0016232611 0.0025995363 0.0250670968 0.0086676936 3.3884825986e-04 0.0 9.6667206329e-04 0.0034283919 9.4018526235e-04 0.0 8.949962512e-04 0.0029635859 0.0 0.0 6.7965490939e-04 0.0023166043 0.0 2.6947303623e-05 6.4645144206e-06 2.3229575726e-04 0.0024975515 0.0030134838 0.0012659572 0.0019110196 0.0020810098 0.0011938387 0.0046123482 0.0062604191 0.0106397826 0.0057766907 0.0143963369 0.0087228631 0.0032926313 0.0054594641 0.0031349619 0.0030245328 0.0064937708 0.0063523744 0.0014308083 2.3053616801e-04 3.3005322712e-05 6.2194489346e-04 0.0019380004 0.002999694 0.003964793 0.0064738691 0.0098674374 0.009160372 0.0093370144 0.0138348709 0.0087879656 0.0052646367 0.0056080163 0.0044265094 0.0021285997 0.0042182686 0.0035416235 0.0027342677 0.001826369 0.0031069857 0.0066153088 0.005496246 0.0020163584 9.9983821218e-04 0.0017544195 6.972309219e-06 0.0014661701 0.004645267 0.0014652135 1.5046472426e-04 0.0018551858 8.3403874265e-04 0.0015377701 0.0029961784 0.0074304709 7.4015719618e-04 7.9511320401e-04 0.0024739373 0.0023585382 5.5863741133e-04 0.0025389635 0.0039751825 0.0114138529 2.7815069405e-04 0.0 0.0 0.0 0.0010777699 0.00466505 0.0028731563 0.0019763675 1.2738293499e-04 8.6182256276e-05 0.0025898763 0.0057553253 
0.0075274727 0.0051956106 0.0090125425 0.0041708117 0.0012879197 0.0086971962 0.0060748749 0.0094621074 0.0015341512 0.0 0.0 0.0017551574 0.0022093226 9.5022299181e-04 0.0 0.0015455401 0.0034562132 1.4405390289e-04 3.5121518907e-05 0.0023364249 0.0015767943 0.0 0.0 0.0 0.0 3.43252099e-04 0.0042169091 4.7604785892e-04 0.0025862883 0.0039727585 0.0033641758 0.0039017389 5.0292839682e-04 0.0034922576 0.0070645052 0.0189878416 0.0125331184 0.0100332563 0.0118381644 0.0064387025 0.0081383432 0.0035532988 6.4265941591e-04 0.0010939566 0.0018274505 4.5746801181e-04 0.0 9.0534503274e-07 0.0012728475 0.0029495613 0.0021970157 0.0047793299 0.0090709061 0.0092776752 0.0067144236 0.0056900107 0.006205202 0.0098834269 0.010276297 0.0025809166 0.003211045 0.002584342 0.0033900354 0.0091769028 0.0089965921 0.0071831653 0.0041586315 0.0022927438 7.9309991761e-05 0.0021658833 5.4397721968e-04 3.4632605768e-04 0.0023978618 7.3136995447e-06 0.0 9.1497707535e-04 0.0018579654 1.1094437994e-04 0.0034428612 0.0070418739 0.005281278 3.2526687224e-04 6.7578370226e-04 0.0020314599 5.4695685699e-04 9.7323313389e-06 8.9665485807e-04 0.004798038 0.0013327296 6.6464331854e-06 5.0565982494e-06 0.0 0.0027289347 0.0052296682 0.0024247722 1.9195110479e-04 1.558289061e-04 0.0037318853 0.006386041 0.0026614963 
0.0039215149 0.0131678261 0.0054359939 0.005192746 0.0054584433 0.0053698927 0.0089305663 0.0056023146 0.0054678948 0.0032617586 0.0028355335 0.0033158792 0.0029654284 0.0021026213 0.0015746795 0.0055174431 0.006956737 7.9911236169e-04 0.0017588083 0.0027587314 2.6829872456e-04 2.0468888158e-04 1.5276366785e-07 0.0 0.0 7.2926698753e-05 0.0017114233 0.0035376814 0.0048125298 0.0026535181 0.0034482646 0.003224511 2.6168873307e-04 0.0043870462 0.0055562426 0.0083637773 0.0067412237 0.008887974 0.0047975356 0.0051683355 0.0020798294 0.001537932 0.0017906388 0.0024070258 0.0024818663 0.0021066005 0.0 3.6647034331e-07 4.8843739228e-04 6.9114154624e-04 5.1148721008e-05 1.1304303021e-04 0.0027526396 0.0048302416 0.0034667233 0.0013214543 0.0068144646 0.0060760295 0.005309959 0.0026471978 0.0038482266 0.0101267696 0.0125844311 0.0089230665 0.0059532977 0.0027634459 0.0065744078 0.0022037828 1.290911853e-04 0.001137388 0.0021644948 2.0041588806e-04 0.0025212717 3.0203963899e-04 2.099050773e-06 1.3541996887e-04 0.003943482 0.0029528073 0.002958372 0.0018043753 0.0044977907 0.0035036778 1.0060224541e-04 0.0012331211 0.0011164774 0.0 7.1385298507e-04 0.0032777769 0.0062875308 0.0073720061 0.0028003765 0.0010700284 0.0052966983 0.0046311952 9.426747067e-05 3.0668663093e-04 0.0047049723 0.0053398025 6.1460278386e-04 0.0 
0.001691971 0.0061133721 0.0026535228 0.0037379946 0.0044623107 0.0055523606 0.0101080889 0.0020861866 0.0033375335 0.0047122248 0.0035149394 0.0018240894 0.0037980069 0.0036458665 0.0049450993 0.0063553667 0.0041838648 0.0065213214 0.0034388707 9.4050869027e-04 0.0033884267 0.0025014088 4.611760272e-04 3.425003918e-04 0.0 3.3817430057e-04 0.0023707812 0.0038714647 0.0075336971 0.0028175075 0.0021692702 0.002362507 0.0053734484 0.0065338176 0.0034903738 0.0051193705 0.0029438974 0.0031059722 0.0057580179 0.0052877681 0.0012491446 0.004353835 0.0033430212 0.0028384798 0.001675612 0.0010230491 0.0 0.0 1.1548943057e-04 4.5052469072e-04 0.0 0.0 1.8824430136e-04 0.0010511053 0.004493368 0.002514893 0.0076432679 0.0082878376 0.0029041124 0.0021483846 0.0056975397 0.0077939958 0.0069056201 0.0052788709 0.0043004779 0.0012528985 0.008151922 0.0027613389 0.0037986138 0.0034436212 0.0029906297 0.0019150439 0.0020720548 0.0018857792 6.6422050486e-04 0.0 0.0038243119 0.0072609673 2.5108747852e-04 4.2032823129e-04 0.0026747974 0.0048894823 0.0025815442 0.0019489084 0.001855933 0.0 1.1559862957e-04 0.0018011499 0.0076102246 0.0135477435 0.0093474591 0.0035408056 0.0035755553 0.0039889433 0.0013457941 0.0043151261 0.0052065066 3.0299549577e-04 0.0 0.0 
0.0028039164 0.0043835326 0.0039642956 0.0030411651 0.0033163188 0.003155832 0.0081545712 0.0089918643 0.0038030256 0.0037577432 0.0028981157 0.0026835253 0.0047239003 0.0048805149 0.0058156319 0.0048159236 0.0035547907 0.0056922177 0.0032268121 0.0030001395 0.0015397167 7.3855695056e-05 0.0024385158 0.0019319487 0.0013180906 0.0027817041 0.0031530827 0.0029329578 0.0016844191 6.5248969485e-04 0.0027629322 0.0078925243 0.0087370862 0.006223987 0.0053328105 0.0060238651 0.0053336606 0.0041823574 0.0027428613 0.0056816779 0.0044646936 0.0060239794 0.004234881 0.0029922995 0.0024608359 2.5423713207e-04 2.6115577476e-07 8.7768719606e-04 0.0024579385 0.0012259295 0.0 3.8294315866e-04 0.0025192522 0.0010539361 0.0029614857 0.0053126463 0.0077759211 0.0054597829 0.0030675149 0.0017547981 0.0011031666 0.0034767629 0.0042611617 0.0061292599 0.003450693 0.0040968237 0.0094736299 0.0039047658 0.0025650028 0.0011905974 0.0062662115 0.0056578869 0.0031920857 0.0025613231 0.0020035427 4.1889813039e-04 0.0038795947 0.006192493 0.0022790078 3.7973313204e-04 0.0025420123 0.0039256747 0.0033206649 0.0045986516 0.0068822753 0.0029624123 0.0029017859 0.0033870682 0.0061748997 0.0063889148 0.0060094956 0.0062964022 0.0063284763 0.0086492319 0.0054237936 0.0042748683 0.0011446175 0.0 0.0 0.0 
0.0035334332 0.0034132905 0.0059067051 9.708525942e-04 0.0046014158 7.2746214225e-04 0.001723579 0.0103705982 0.0064624749 0.0022148239 0.00166196 0.0010101288 0.0037537468 0.0026003141 0.0048907277 0.0013871588 3.2037354601e-04 0.0030828756 2.781096075e-04 0.0040416019 0.0013371876 0.0013111513 0.0051128401 0.0033365067 0.0037222494 0.0030016764 0.0016762534 3.6513153197e-04 3.0006635635e-04 3.7368624039e-04 0.0059414572 0.0118769852 0.0044139387 0.0011967597 0.0034139164 0.0044643598 0.0022169568 0.0018262228 0.0037567473 0.005171468 0.0047030241 0.0059357633 0.007526551 0.0071334306 0.0013223843 1.2401302777e-07 2.0058938634e-07 6.3029670606e-04 6.3096560569e-04 1.5992061692e-05 0.0 2.513007756e-04 0.0040007614 0.0056257509 0.0039325926 0.0072725198 0.0069509255 0.0028689778 0.0042160746 0.0012364491 0.0027364117 0.0039951406 0.0050345259 0.0051643718 0.003398727 0.0075926085 0.0131183814 0.0056513281 0.0030639038 8.1883301364e-04 0.003726954 0.0043109841 0.0083354553 0.0065413258 0.0039074996 0.0058391934 0.002439796 0.0015688079 0.0024153833 0.0025516972 0.0038084261 6.4793377846e-04 0.0020762765 0.0012349083 0.0035567172 0.0053651579 0.0028218743 0.0024079334 0.0030360544 8.569574718e-05 0.0019442485 0.0033885958 0.0046263417 0.0032652334 0.0022109149 0.0015171301 1.0299973312e-05 0.0 0.0 0.0 
0.0027890676 0.0049644383 0.0105389316 0.0048291677 0.0037712965 0.0033267952 0.0044598737 0.0123138981 0.0118158048 0.0059388899 0.0029704064 0.0038219065 0.012465318 0.007525491 0.0049559882 0.0014703621 0.0012508827 0.0010259892 0.0012365797 0.0021872129 0.0031589502 0.0057663621 0.003646285 0.002613133 0.0024219881 0.0044411923 0.0017903731 0.0013420167 0.0023590459 0.0048840693 0.0097060242 0.0069075071 6.1469348976e-05 4.6318835668e-04 0.0054392694 0.0014395358 0.0 1.2290592356e-04 0.0024119639 0.0026103642 6.680436592e-04 0.0020302793 0.0027794858 0.0030451228 1.653373516e-04 0.0 0.0 0.0 0.0 0.0 0.0 0.0 6.5566582386e-04 0.0036161021 0.0077756937 0.0046528684 0.0067292665 0.0026092045 0.0041934022 0.0066160325 0.0046904182 0.0036213381 0.0039864175 0.0048064198 0.00535761 0.0124001907 0.0220275347 0.0017255464 0.0051443115 0.0037581637 0.0043510877 0.0067426051 0.0093746029 0.0213663986 0.0090912802 0.0032983417 0.0014169272 2.5842772124e-04 0.0022245493 0.0013446391 0.0032107596 8.2546341496e-06 0.0017618451 0.0050794446 0.00155471 0.0019551607 7.8791077459e-04 0.0013537729 5.6031988048e-04 3.7796419286e-05 1.4652387445e-04 0.0027508374 0.0046666288 0.0018260334 3.4186348321e-04 0.0 0.0 0.0 0.0 0.0 
0.0024199619 0.0033040626 0.0043814832 0.0045348081 0.01211361 0.0042850146 0.003395405 0.004571858 0.0088558031 0.0130771375 0.0151349445 0.0180181691 0.0167906341 0.0075653174 0.0019932662 0.0022826692 0.0010800831 2.8285103829e-04 0.0029808269 5.7948965032e-04 0.0070014767 0.0049957998 0.0026506529 5.990521484e-04 0.0049180382 0.0081224313 0.0020972456 0.0029055991 0.0083852218 0.0071216005 0.0057622752 7.88078487e-04 1.3096168954e-05 0.0027704398 0.0061627148 5.536553808e-04 0.0 0.0013537873 0.0044377672 0.0036048572 8.4325009093e-04 0.0022867719 0.0025949444 0.0012703996 4.7464192761e-05 0.0 0.0 0.0 0.0 0.0 0.0 0.0 1.2469650319e-07 8.2862955249e-04 0.0069035609 0.0093163132 0.0069968304 0.0041791399 0.006230552 0.0042827684 9.6868172608e-04 0.0013137195 2.3580457585e-04 0.0026481937 0.0018878899 0.0101145218 0.0106295803 0.0020992333 0.0096548544 0.002054861 4.0833084924e-04 0.0021509165 9.6793017705e-04 0.0095199712 0.0102906947 0.006175576 0.0047270172 0.0028071817 0.0015884749 0.0020700311 0.0022693259 0.0 0.0012462573 0.0042389086 0.0028470819 0.0024607978 0.0013203091 0.0026277574 0.0029599805 0.0031829448 0.0029951852 0.0033421123 0.0065795541 0.0020393519 4.3658989091e-04 0.0 0.0 0.0 0.0 0.0 
0.0028691802 0.0027576707 0.0023301538 3.0807291239e-04 0.0055211468 0.0054689562 0.0031899981 0.0022576159 0.0029870751 0.0069699944 0.0060270503 0.0124083749 0.0131794412 0.0063687927 0.0018152819 7.8510700987e-04 2.397627368e-05 0.0010684233 0.0025139073 0.0013430759 0.0080743538 0.0030517898 4.1729126178e-04 0.002216443 0.006573164 0.0059019784 0.0028068766 0.0054089455 0.0056243526 0.0042183147 0.0018421316 3.4754362136e-04 8.0424040736e-04 0.0053149879 0.0057473883 7.750781493e-05 5.1696778078e-05 0.002923838 0.0067776609 0.0044190785 0.0022459071 0.0043519678 0.0039469584 0.0010722705 0.0010715469 0.0 0.0 0.0 0.0 0.0 0.0 0.0 0.0 8.20958722e-05 0.008147829 0.0196555782 0.0100203025 0.0070583645 0.0133001964 0.0016072906 1.2213483383e-04 0.0018081176 0.0024175143 0.0020556217 0.0027867899 0.0089826622 0.0071290342 0.0035774631 0.0084009052 0.0050945023 4.3590510427e-04 0.0012820676 0.0041878536 0.0067131655 0.0065019324 0.0084497319 0.0093182616 0.0079016638 0.0057138232 0.0055709973 0.0044443541 2.7204081005e-05 0.0022129393 0.0027719993 0.0020755988 0.0036717395 0.0038789206 9.4303927194e-05 1.5388355203e-04 0.0011773857 0.0041564792 0.005951021 0.0115084364 0.0083991799 9.0395837776e-04 0.0 0.0 0.0 0.0 0.0 
0.0031468865 0.0027253781 0.002132665 0.0015044861 0.0035707294 0.0049566064 0.0025266643 0.0047090801 0.0040019122 0.0012811312 0.0063836775 0.0074295178 0.0107813681 0.0040226877 0.0068850059 0.0043251198 0.0017116909 7.4347074838e-04 0.0023395214 0.0037473538 0.0041662227 5.6447718516e-04 0.0016065748 0.0067691667 0.0049554922 0.005099009 0.0052606406 0.0063443701 0.0043698273 0.0015034535 0.0023013456 0.0026256785 0.0058353744 0.0085296474 0.0034480412 3.8062532951e-04 0.0027595071 0.0057965031 0.006563228 0.0070356568 0.0048951988 0.0012806035 4.9349273027e-04 3.7122082618e-04 0.002295017 3.4545491519e-04 8.7837935715e-10 0.0 0.0 0.0 0.0 0.0 0.0 1.2622157613e-04 0.0037282541 0.0060949263 0.006692929 0.010460804 0.017622971 0.0035301574 0.0014031394 5.6871816497e-04 0.0031353821 0.0051575337 0.0074682752 0.0107426661 0.0114404832 0.0032575551 0.0060139599 0.0071948747 0.0024210205 0.0019893499 0.0080001777 0.0062003139 0.0026768224 0.0073614963 0.0076376095 0.0082014855 0.007901075 0.006796758 0.0056146114 0.0018266785 0.0036834454 5.8161514455e-04 0.0020387174 0.0010491063 0.0090331552 0.0051391304 0.0028645837 0.0023504395 0.0017625752 0.0024573868 0.0096704464 0.0109749933 0.003729051 3.3776992622e-04 0.0 0.0 0.0 0.0 
0.0027468726 0.0027305065 0.0026387485 0.0031947433 0.0040102359 0.002817593 0.0013082617 0.0071134502 0.0036772186 1.9936017968e-05 0.0044541981 0.0021849526 0.0076274764 0.0018197137 0.0028920678 0.0039977777 0.0032380449 6.1741969154e-05 0.0026582011 0.0042453734 8.0032481221e-04 2.6693177344e-04 0.0016710428 0.0035861571 0.0067828985 0.008297172 0.0126327797 0.0072136966 0.0012214102 0.0018574582 0.0020643413 0.003251958 0.0055415328 0.0055227475 0.003463734 0.0029363497 0.0063773724 0.0041264012 0.0052408712 0.0052255408 0.0049193564 0.0068018433 0.003027227 1.9673143606e-06 0.0019198975 0.0028768267 9.0164083997e-04 3.2108137372e-05 0.0 0.0 0.0 0.0 0.0 0.0 0.0 3.3070411141e-04 0.0037218936 0.0043878131 0.0086094421 0.0071748736 0.0067273722 0.0075993454 0.0068021431 0.0067519936 0.0051767023 0.0046432772 0.0043221984 0.0035146309 0.0078304648 0.0063919068 0.001234457 0.0019208922 0.0036944876 0.0032658381 3.492997585e-06 0.0050978654 0.0039988597 0.0019565808 0.0073526013 0.0112248478 0.0203797528 0.0100367218 0.0028394182 0.0015826905 0.0037642832 0.0033944959 0.0036005706 0.0039813809 5.9681137196e-04 0.0015029164 6.5730441015e-04 0.00351155 0.0048290924 0.0039786312 0.0033959235 0.0036078914 0.0011172968 0.0 0.0 7.6164181963e-05 